h 0.5 0 10 tcp 40 ------- 0 0.0 3.0 0 0
+ 0.51 0 10 tcp 40 ------- 0 0.0 3.0 0 0
- 0.51 0 10 tcp 40 ------- 0 0.0 3.0 0 0
r 0.520516 10 3 tcp 40 ------- 0 0.0 3.0 0 0
h 0.520516 3 10 ack 40 ------- 0 3.0 0.0 0 1
+ 0.530516 3 10 ack 40 ------- 0 3.0 0.0 0 1
- 0.530516 3 10 ack 40 ------- 0 3.0 0.0 0 1
r 0.541032 10 0 ack 40 ------- 0 3.0 0.0 0 1
h 0.541032 0 10 tcp 1040 ------- 0 0.0 3.0 1 2
h 0.541032 0 10 tcp 1040 ------- 0 0.0 3.0 2 3
+ 0.551032 0 10 tcp 1040 ------- 0 0.0 3.0 1 2
- 0.551032 0 10 tcp 1040 ------- 0 0.0 3.0 1 2
+ 0.551032 0 10 tcp 1040 ------- 0 0.0 3.0 2 3
- 0.55956 0 10 tcp 1040 ------- 0 0.0 3.0 2 3
r 0.569468 10 3 tcp 1040 ------- 0 0.0 3.0 1 2
h 0.569468 3 10 ack 40 ------- 0 3.0 0.0 1 4
r 0.577996 10 3 tcp 1040 ------- 0 0.0 3.0 2 3
h 0.577996 3 10 ack 40 ------- 0 3.0 0.0 2 5
+ 0.579468 3 10 ack 40 ------- 0 3.0 0.0 1 4
- 0.579468 3 10 ack 40 ------- 0 3.0 0.0 1 4
+ 0.587996 3 10 ack 40 ------- 0 3.0 0.0 2 5
- 0.587996 3 10 ack 40 ------- 0 3.0 0.0 2 5
r 0.589984 10 0 ack 40 ------- 0 3.0 0.0 1 4
h 0.589984 0 10 tcp 1040 ------- 0 0.0 3.0 3 6
h 0.589984 0 10 tcp 1040 ------- 0 0.0 3.0 4 7
r 0.598512 10 0 ack 40 ------- 0 3.0 0.0 2 5
h 0.598512 0 10 tcp 1040 ------- 0 0.0 3.0 5 8
h 0.598512 0 10 tcp 1040 ------- 0 0.0 3.0 6 9
+ 0.599984 0 10 tcp 1040 ------- 0 0.0 3.0 3 6
- 0.599984 0 10 tcp 1040 ------- 0 0.0 3.0 3 6
+ 0.599984 0 10 tcp 1040 ------- 0 0.0 3.0 4 7
+ 0.608512 0 10 tcp 1040 ------- 0 0.0 3.0 5 8
+ 0.608512 0 10 tcp 1040 ------- 0 0.0 3.0 6 9
- 0.608512 0 10 tcp 1040 ------- 0 0.0 3.0 4 7
- 0.61704 0 10 tcp 1040 ------- 0 0.0 3.0 5 8
r 0.61842 10 3 tcp 1040 ------- 0 0.0 3.0 3 6
h 0.61842 3 10 ack 40 ------- 0 3.0 0.0 3 10
- 0.625568 0 10 tcp 1040 ------- 0 0.0 3.0 6 9
r 0.626948 10 3 tcp 1040 ------- 0 0.0 3.0 4 7
h 0.626948 3 10 ack 40 ------- 0 3.0 0.0 4 11
+ 0.62842 3 10 ack 40 ------- 0 3.0 0.0 3 10
- 0.62842 3 10 ack 40 ------- 0 3.0 0.0 3 10
r 0.635476 10 3 tcp 1040 ------- 0 0.0 3.0 5 8
h 0.635476 3 10 ack 40 ------- 0 3.0 0.0 5 12
+ 0.636948 3 10 ack 40 ------- 0 3.0 0.0 4 11
- 0.636948 3 10 ack 40 ------- 0 3.0 0.0 4 11
r 0.644004 10 3 tcp 1040 ------- 0 0.0 3.0 6 9
h 0.644004 3 10 ack 40 ------- 0 3.0 0.0 6 13
r 0.644616 10 0 ack 40 ------- 0 3.0 0.0 3 10
h 0.644616 0 10 tcp 1040 ------- 0 0.0 3.0 7 14
h 0.644616 0 10 tcp 1040 ------- 0 0.0 3.0 8 15
+ 0.645476 3 10 ack 40 ------- 0 3.0 0.0 5 12
- 0.645476 3 10 ack 40 ------- 0 3.0 0.0 5 12
r 0.647464 10 0 ack 40 ------- 0 3.0 0.0 4 11
h 0.647464 0 10 tcp 1040 ------- 0 0.0 3.0 9 16
h 0.647464 0 10 tcp 1040 ------- 0 0.0 3.0 10 17
+ 0.654004 3 10 ack 40 ------- 0 3.0 0.0 6 13
- 0.654004 3 10 ack 40 ------- 0 3.0 0.0 6 13
+ 0.654616 0 10 tcp 1040 ------- 0 0.0 3.0 7 14
- 0.654616 0 10 tcp 1040 ------- 0 0.0 3.0 7 14
+ 0.654616 0 10 tcp 1040 ------- 0 0.0 3.0 8 15
r 0.655992 10 0 ack 40 ------- 0 3.0 0.0 5 12
h 0.655992 0 10 tcp 1040 ------- 0 0.0 3.0 11 18
h 0.655992 0 10 tcp 1040 ------- 0 0.0 3.0 12 19
+ 0.657464 0 10 tcp 1040 ------- 0 0.0 3.0 9 16
+ 0.657464 0 10 tcp 1040 ------- 0 0.0 3.0 10 17
- 0.663144 0 10 tcp 1040 ------- 0 0.0 3.0 8 15
r 0.66452 10 0 ack 40 ------- 0 3.0 0.0 6 13
h 0.66452 0 10 tcp 1040 ------- 0 0.0 3.0 13 20
h 0.66452 0 10 tcp 1040 ------- 0 0.0 3.0 14 21
+ 0.665992 0 10 tcp 1040 ------- 0 0.0 3.0 11 18
+ 0.665992 0 10 tcp 1040 ------- 0 0.0 3.0 12 19
- 0.671672 0 10 tcp 1040 ------- 0 0.0 3.0 9 16
r 0.673052 10 3 tcp 1040 ------- 0 0.0 3.0 7 14
h 0.673052 3 10 ack 40 ------- 0 3.0 0.0 7 22
+ 0.67452 0 10 tcp 1040 ------- 0 0.0 3.0 13 20
+ 0.67452 0 10 tcp 1040 ------- 0 0.0 3.0 14 21
- 0.6802 0 10 tcp 1040 ------- 0 0.0 3.0 10 17
r 0.68158 10 3 tcp 1040 ------- 0 0.0 3.0 8 15
h 0.68158 3 10 ack 40 ------- 0 3.0 0.0 8 23
+ 0.683052 3 10 ack 40 ------- 0 3.0 0.0 7 22
- 0.683052 3 10 ack 40 ------- 0 3.0 0.0 7 22
- 0.688728 0 10 tcp 1040 ------- 0 0.0 3.0 11 18
r 0.690108 10 3 tcp 1040 ------- 0 0.0 3.0 9 16
h 0.690108 3 10 ack 40 ------- 0 3.0 0.0 9 24
+ 0.69158 3 10 ack 40 ------- 0 3.0 0.0 8 23
- 0.69158 3 10 ack 40 ------- 0 3.0 0.0 8 23
- 0.698 0 10 tcp 1040 ------- 0 0.0 3.0 12 19
r 0.698636 10 3 tcp 1040 ------- 0 0.0 3.0 10 17
h 0.698636 3 10 ack 40 ------- 0 3.0 0.0 10 25
r 0.699376 10 0 ack 40 ------- 0 3.0 0.0 7 22
h 0.699376 0 10 tcp 1040 ------- 0 0.0 3.0 15 26
h 0.699376 0 10 tcp 1040 ------- 0 0.0 3.0 16 27
+ 0.700108 3 10 ack 40 ------- 0 3.0 0.0 9 24
- 0.706664 0 10 tcp 1040 ------- 0 0.0 3.0 13 20
r 0.707908 10 3 tcp 1040 ------- 0 0.0 3.0 11 18
h 0.707908 3 10 ack 40 ------- 0 3.0 0.0 11 28
+ 0.708636 3 10 ack 40 ------- 0 3.0 0.0 10 25
+ 0.709376 0 10 tcp 1040 ------- 0 0.0 3.0 15 26
+ 0.709376 0 10 tcp 1040 ------- 0 0.0 3.0 16 27
- 0.71584 0 10 tcp 1040 ------- 0 0.0 3.0 14 21
r 0.716572 10 3 tcp 1040 ------- 0 0.0 3.0 12 19
h 0.716572 3 10 ack 40 ------- 0 3.0 0.0 12 29
+ 0.717908 3 10 ack 40 ------- 0 3.0 0.0 11 28
- 0.724504 0 10 tcp 1040 ------- 0 0.0 3.0 15 26
r 0.725748 10 3 tcp 1040 ------- 0 0.0 3.0 13 20
h 0.725748 3 10 ack 40 ------- 0 3.0 0.0 13 30
+ 0.726572 3 10 ack 40 ------- 0 3.0 0.0 12 29
- 0.73368 0 10 tcp 1040 ------- 0 0.0 3.0 16 27
r 0.734412 10 3 tcp 1040 ------- 0 0.0 3.0 14 21
h 0.734412 3 10 ack 40 ------- 0 3.0 0.0 14 31
+ 0.735748 3 10 ack 40 ------- 0 3.0 0.0 13 30
r 0.743588 10 3 tcp 1040 ------- 0 0.0 3.0 15 26
h 0.743588 3 10 ack 40 ------- 0 3.0 0.0 15 32
+ 0.744412 3 10 ack 40 ------- 0 3.0 0.0 14 31
- 0.746708 3 10 ack 40 ------- 0 3.0 0.0 9 24
- 0.747316 3 10 ack 40 ------- 0 3.0 0.0 10 25
- 0.747924 3 10 ack 40 ------- 0 3.0 0.0 11 28
- 0.748532 3 10 ack 40 ------- 0 3.0 0.0 12 29
- 0.74914 3 10 ack 40 ------- 0 3.0 0.0 13 30
- 0.749748 3 10 ack 40 ------- 0 3.0 0.0 14 31
r 0.752252 10 3 tcp 1040 ------- 0 0.0 3.0 16 27
h 0.752252 3 10 ack 40 ------- 0 3.0 0.0 16 33
+ 0.753588 3 10 ack 40 ------- 0 3.0 0.0 15 32
- 0.753588 3 10 ack 40 ------- 0 3.0 0.0 15 32
r 0.756616 10 0 ack 40 ------- 0 3.0 0.0 8 23
h 0.756616 0 10 tcp 1040 ------- 0 0.0 3.0 17 34
h 0.756616 0 10 tcp 1040 ------- 0 0.0 3.0 18 35
r 0.757224 10 0 ack 40 ------- 0 3.0 0.0 9 24
h 0.757224 0 10 tcp 1040 ------- 0 0.0 3.0 19 36
h 0.757224 0 10 tcp 1040 ------- 0 0.0 3.0 20 37
r 0.757832 10 0 ack 40 ------- 0 3.0 0.0 10 25
h 0.757832 0 10 tcp 1040 ------- 0 0.0 3.0 21 38
h 0.757832 0 10 tcp 1040 ------- 0 0.0 3.0 22 39
r 0.75844 10 0 ack 40 ------- 0 3.0 0.0 11 28
h 0.75844 0 10 tcp 1040 ------- 0 0.0 3.0 23 40
h 0.75844 0 10 tcp 1040 ------- 0 0.0 3.0 24 41
r 0.759048 10 0 ack 40 ------- 0 3.0 0.0 12 29
h 0.759048 0 10 tcp 1040 ------- 0 0.0 3.0 25 42
h 0.759048 0 10 tcp 1040 ------- 0 0.0 3.0 26 43
r 0.759656 10 0 ack 40 ------- 0 3.0 0.0 13 30
h 0.759656 0 10 tcp 1040 ------- 0 0.0 3.0 27 44
h 0.759656 0 10 tcp 1040 ------- 0 0.0 3.0 28 45
r 0.760264 10 0 ack 40 ------- 0 3.0 0.0 14 31
h 0.760264 0 10 tcp 1040 ------- 0 0.0 3.0 29 46
h 0.760264 0 10 tcp 1040 ------- 0 0.0 3.0 30 47
+ 0.762252 3 10 ack 40 ------- 0 3.0 0.0 16 33
- 0.762252 3 10 ack 40 ------- 0 3.0 0.0 16 33
r 0.764104 10 0 ack 40 ------- 0 3.0 0.0 15 32
h 0.764104 0 10 tcp 1040 ------- 0 0.0 3.0 31 48
h 0.764104 0 10 tcp 1040 ------- 0 0.0 3.0 32 49
+ 0.766616 0 10 tcp 1040 ------- 0 0.0 3.0 17 34
- 0.766616 0 10 tcp 1040 ------- 0 0.0 3.0 17 34
+ 0.766616 0 10 tcp 1040 ------- 0 0.0 3.0 18 35
+ 0.767224 0 10 tcp 1040 ------- 0 0.0 3.0 19 36
+ 0.767224 0 10 tcp 1040 ------- 0 0.0 3.0 20 37
+ 0.767832 0 10 tcp 1040 ------- 0 0.0 3.0 21 38
+ 0.767832 0 10 tcp 1040 ------- 0 0.0 3.0 22 39
+ 0.76844 0 10 tcp 1040 ------- 0 0.0 3.0 23 40
+ 0.76844 0 10 tcp 1040 ------- 0 0.0 3.0 24 41
+ 0.769048 0 10 tcp 1040 ------- 0 0.0 3.0 25 42
+ 0.769048 0 10 tcp 1040 ------- 0 0.0 3.0 26 43
+ 0.769656 0 10 tcp 1040 ------- 0 0.0 3.0 27 44
+ 0.769656 0 10 tcp 1040 ------- 0 0.0 3.0 28 45
+ 0.770264 0 10 tcp 1040 ------- 0 0.0 3.0 29 46
+ 0.770264 0 10 tcp 1040 ------- 0 0.0 3.0 30 47
r 0.772768 10 0 ack 40 ------- 0 3.0 0.0 16 33
h 0.772768 0 10 tcp 1040 ------- 0 0.0 3.0 33 50
h 0.772768 0 10 tcp 1040 ------- 0 0.0 3.0 34 51
+ 0.774104 0 10 tcp 1040 ------- 0 0.0 3.0 31 48
+ 0.774104 0 10 tcp 1040 ------- 0 0.0 3.0 32 49
- 0.775144 0 10 tcp 1040 ------- 0 0.0 3.0 18 35
+ 0.782768 0 10 tcp 1040 ------- 0 0.0 3.0 33 50
+ 0.782768 0 10 tcp 1040 ------- 0 0.0 3.0 34 51
- 0.783672 0 10 tcp 1040 ------- 0 0.0 3.0 19 36
r 0.785052 10 3 tcp 1040 ------- 0 0.0 3.0 17 34
h 0.785052 3 10 ack 40 ------- 0 3.0 0.0 17 52
- 0.7922 0 10 tcp 1040 ------- 0 0.0 3.0 20 37
r 0.79358 10 3 tcp 1040 ------- 0 0.0 3.0 18 35
h 0.79358 3 10 ack 40 ------- 0 3.0 0.0 18 53
+ 0.795052 3 10 ack 40 ------- 0 3.0 0.0 17 52
- 0.795052 3 10 ack 40 ------- 0 3.0 0.0 17 52
- 0.800728 0 10 tcp 1040 ------- 0 0.0 3.0 21 38
r 0.802108 10 3 tcp 1040 ------- 0 0.0 3.0 19 36
h 0.802108 3 10 ack 40 ------- 0 3.0 0.0 19 54
+ 0.80358 3 10 ack 40 ------- 0 3.0 0.0 18 53
- 0.809392 0 10 tcp 1040 ------- 0 0.0 3.0 22 39
r 0.810636 10 3 tcp 1040 ------- 0 0.0 3.0 20 37
h 0.810636 3 10 ack 40 ------- 0 3.0 0.0 20 55
+ 0.812108 3 10 ack 40 ------- 0 3.0 0.0 19 54
- 0.818568 0 10 tcp 1040 ------- 0 0.0 3.0 23 40
r 0.8193 10 3 tcp 1040 ------- 0 0.0 3.0 21 38
h 0.8193 3 10 ack 40 ------- 0 3.0 0.0 21 56
- 0.819956 3 10 ack 40 ------- 0 3.0 0.0 18 53
+ 0.820636 3 10 ack 40 ------- 0 3.0 0.0 20 55
- 0.8207 3 10 ack 40 ------- 0 3.0 0.0 19 54
- 0.821956 3 10 ack 40 ------- 0 3.0 0.0 20 55
r 0.828476 10 3 tcp 1040 ------- 0 0.0 3.0 22 39
h 0.828476 3 10 ack 40 ------- 0 3.0 0.0 22 57
+ 0.8293 3 10 ack 40 ------- 0 3.0 0.0 21 56
- 0.8293 3 10 ack 40 ------- 0 3.0 0.0 21 56
r 0.829864 10 0 ack 40 ------- 0 3.0 0.0 17 52
h 0.829864 0 10 tcp 1040 ------- 0 0.0 3.0 35 58
h 0.829864 0 10 tcp 1040 ------- 0 0.0 3.0 36 59
r 0.830608 10 0 ack 40 ------- 0 3.0 0.0 18 53
h 0.830608 0 10 tcp 1040 ------- 0 0.0 3.0 37 60
h 0.830608 0 10 tcp 1040 ------- 0 0.0 3.0 38 61
r 0.831864 10 0 ack 40 ------- 0 3.0 0.0 19 54
h 0.831864 0 10 tcp 1040 ------- 0 0.0 3.0 39 62
r 0.832472 10 0 ack 40 ------- 0 3.0 0.0 20 55
h 0.832472 0 10 tcp 1040 ------- 0 0.0 3.0 40 63
- 0.836016 0 10 tcp 1040 ------- 0 0.0 3.0 24 41
+ 0.838476 3 10 ack 40 ------- 0 3.0 0.0 22 57
- 0.838476 3 10 ack 40 ------- 0 3.0 0.0 22 57
+ 0.839864 0 10 tcp 1040 ------- 0 0.0 3.0 35 58
+ 0.839864 0 10 tcp 1040 ------- 0 0.0 3.0 36 59
+ 0.840608 0 10 tcp 1040 ------- 0 0.0 3.0 37 60
+ 0.840608 0 10 tcp 1040 ------- 0 0.0 3.0 38 61
+ 0.841864 0 10 tcp 1040 ------- 0 0.0 3.0 39 62
+ 0.842472 0 10 tcp 1040 ------- 0 0.0 3.0 40 63
r 0.845924 10 3 tcp 1040 ------- 0 0.0 3.0 23 40
h 0.845924 3 10 ack 40 ------- 0 3.0 0.0 23 64
- 0.846344 0 10 tcp 1040 ------- 0 0.0 3.0 25 42
r 0.847312 10 0 ack 40 ------- 0 3.0 0.0 21 56
h 0.847312 0 10 tcp 1040 ------- 0 0.0 3.0 41 65
+ 0.855924 3 10 ack 40 ------- 0 3.0 0.0 23 64
- 0.855924 3 10 ack 40 ------- 0 3.0 0.0 23 64
r 0.856252 10 3 tcp 1040 ------- 0 0.0 3.0 24 41
h 0.856252 3 10 ack 40 ------- 0 3.0 0.0 24 66
- 0.857184 0 10 tcp 1040 ------- 0 0.0 3.0 26 43
+ 0.857312 0 10 tcp 1040 ------- 0 0.0 3.0 41 65
r 0.858152 10 0 ack 40 ------- 0 3.0 0.0 22 57
h 0.858152 0 10 tcp 1040 ------- 0 0.0 3.0 42 67
+ 0.866252 3 10 ack 40 ------- 0 3.0 0.0 24 66
- 0.866488 0 10 tcp 1040 ------- 0 0.0 3.0 27 44
r 0.867092 10 3 tcp 1040 ------- 0 0.0 3.0 25 42
h 0.867092 3 10 ack 40 ------- 0 3.0 0.0 25 68
- 0.867228 3 10 ack 40 ------- 0 3.0 0.0 24 66
+ 0.868152 0 10 tcp 1040 ------- 0 0.0 3.0 42 67
r 0.876396 10 3 tcp 1040 ------- 0 0.0 3.0 26 43
h 0.876396 3 10 ack 40 ------- 0 3.0 0.0 26 69
+ 0.877092 3 10 ack 40 ------- 0 3.0 0.0 25 68
- 0.877092 3 10 ack 40 ------- 0 3.0 0.0 25 68
r 0.877136 10 0 ack 40 ------- 0 3.0 0.0 23 64
h 0.877136 0 10 tcp 1040 ------- 0 0.0 3.0 43 70
r 0.879544 10 0 ack 40 ------- 0 3.0 0.0 24 66
h 0.879544 0 10 tcp 1040 ------- 0 0.0 3.0 44 71
- 0.88012 0 10 tcp 1040 ------- 0 0.0 3.0 28 45
+ 0.886396 3 10 ack 40 ------- 0 3.0 0.0 26 69
+ 0.887136 0 10 tcp 1040 ------- 0 0.0 3.0 43 70
+ 0.889544 0 10 tcp 1040 ------- 0 0.0 3.0 44 71
r 0.890028 10 3 tcp 1040 ------- 0 0.0 3.0 27 44
h 0.890028 3 10 ack 40 ------- 0 3.0 0.0 27 72
- 0.891608 0 10 tcp 1040 ------- 0 0.0 3.0 29 46
- 0.89402 3 10 ack 40 ------- 0 3.0 0.0 26 69
+ 0.900028 3 10 ack 40 ------- 0 3.0 0.0 27 72
- 0.900028 3 10 ack 40 ------- 0 3.0 0.0 27 72
r 0.901516 10 3 tcp 1040 ------- 0 0.0 3.0 28 45
h 0.901516 3 10 ack 40 ------- 0 3.0 0.0 28 73
r 0.903928 10 0 ack 40 ------- 0 3.0 0.0 25 68
h 0.903928 0 10 tcp 1040 ------- 0 0.0 3.0 45 74
r 0.905184 10 0 ack 40 ------- 0 3.0 0.0 26 69
h 0.905184 0 10 tcp 1040 ------- 0 0.0 3.0 46 75
- 0.905752 0 10 tcp 1040 ------- 0 0.0 3.0 30 47
+ 0.911516 3 10 ack 40 ------- 0 3.0 0.0 28 73
+ 0.913928 0 10 tcp 1040 ------- 0 0.0 3.0 45 74
- 0.915056 0 10 tcp 1040 ------- 0 0.0 3.0 31 48
+ 0.915184 0 10 tcp 1040 ------- 0 0.0 3.0 46 75
r 0.91566 10 3 tcp 1040 ------- 0 0.0 3.0 29 46
h 0.91566 3 10 ack 40 ------- 0 3.0 0.0 29 76
- 0.92372 0 10 tcp 1040 ------- 0 0.0 3.0 32 49
r 0.924964 10 3 tcp 1040 ------- 0 0.0 3.0 30 47
h 0.924964 3 10 ack 40 ------- 0 3.0 0.0 30 77
+ 0.92566 3 10 ack 40 ------- 0 3.0 0.0 29 76
- 0.932896 0 10 tcp 1040 ------- 0 0.0 3.0 33 50
r 0.933628 10 3 tcp 1040 ------- 0 0.0 3.0 31 48
h 0.933628 3 10 ack 40 ------- 0 3.0 0.0 31 78
+ 0.934964 3 10 ack 40 ------- 0 3.0 0.0 30 77
- 0.94156 0 10 tcp 1040 ------- 0 0.0 3.0 34 51
r 0.942804 10 3 tcp 1040 ------- 0 0.0 3.0 32 49
h 0.942804 3 10 ack 40 ------- 0 3.0 0.0 32 79
+ 0.943628 3 10 ack 40 ------- 0 3.0 0.0 31 78
- 0.950088 0 10 tcp 1040 ------- 0 0.0 3.0 35 58
r 0.951468 10 3 tcp 1040 ------- 0 0.0 3.0 33 50
h 0.951468 3 10 ack 40 ------- 0 3.0 0.0 33 80
+ 0.952804 3 10 ack 40 ------- 0 3.0 0.0 32 79
- 0.959264 0 10 tcp 1040 ------- 0 0.0 3.0 36 59
r 0.959996 10 3 tcp 1040 ------- 0 0.0 3.0 34 51
h 0.959996 3 10 ack 40 ------- 0 3.0 0.0 34 81
+ 0.961468 3 10 ack 40 ------- 0 3.0 0.0 33 80
- 0.967792 0 10 tcp 1040 ------- 0 0.0 3.0 37 60
r 0.969172 10 3 tcp 1040 ------- 0 0.0 3.0 35 58
h 0.969172 3 10 ack 40 ------- 0 3.0 0.0 35 82
+ 0.969996 3 10 ack 40 ------- 0 3.0 0.0 34 81
- 0.976456 0 10 tcp 1040 ------- 0 0.0 3.0 38 61
r 0.9777 10 3 tcp 1040 ------- 0 0.0 3.0 36 59
h 0.9777 3 10 ack 40 ------- 0 3.0 0.0 36 83
+ 0.979172 3 10 ack 40 ------- 0 3.0 0.0 35 82
- 0.984984 0 10 tcp 1040 ------- 0 0.0 3.0 39 62
r 0.986364 10 3 tcp 1040 ------- 0 0.0 3.0 37 60
h 0.986364 3 10 ack 40 ------- 0 3.0 0.0 37 84
+ 0.9877 3 10 ack 40 ------- 0 3.0 0.0 36 83
- 0.993512 0 10 tcp 1040 ------- 0 0.0 3.0 40 63
r 0.994892 10 3 tcp 1040 ------- 0 0.0 3.0 38 61
h 0.994892 3 10 ack 40 ------- 0 3.0 0.0 38 85
+ 0.996364 3 10 ack 40 ------- 0 3.0 0.0 37 84
- 1.00204 0 10 tcp 1040 ------- 0 0.0 3.0 41 65
r 1.00342 10 3 tcp 1040 ------- 0 0.0 3.0 39 62
h 1.00342 3 10 ack 40 ------- 0 3.0 0.0 39 86
+ 1.004892 3 10 ack 40 ------- 0 3.0 0.0 38 85
- 1.010568 0 10 tcp 1040 ------- 0 0.0 3.0 42 67
r 1.011948 10 3 tcp 1040 ------- 0 0.0 3.0 40 63
h 1.011948 3 10 ack 40 ------- 0 3.0 0.0 40 87
+ 1.01342 3 10 ack 40 ------- 0 3.0 0.0 39 86
- 1.019096 0 10 tcp 1040 ------- 0 0.0 3.0 43 70
r 1.020476 10 3 tcp 1040 ------- 0 0.0 3.0 41 65
h 1.020476 3 10 ack 40 ------- 0 3.0 0.0 41 88
+ 1.021948 3 10 ack 40 ------- 0 3.0 0.0 40 87
- 1.027624 0 10 tcp 1040 ------- 0 0.0 3.0 44 71
r 1.029004 10 3 tcp 1040 ------- 0 0.0 3.0 42 67
h 1.029004 3 10 ack 40 ------- 0 3.0 0.0 42 89
+ 1.030476 3 10 ack 40 ------- 0 3.0 0.0 41 88
- 1.036152 0 10 tcp 1040 ------- 0 0.0 3.0 45 74
r 1.037532 10 3 tcp 1040 ------- 0 0.0 3.0 43 70
h 1.037532 3 10 ack 40 ------- 0 3.0 0.0 43 90
+ 1.039004 3 10 ack 40 ------- 0 3.0 0.0 42 89
- 1.044816 0 10 tcp 1040 ------- 0 0.0 3.0 46 75
r 1.04606 10 3 tcp 1040 ------- 0 0.0 3.0 44 71
h 1.04606 3 10 ack 40 ------- 0 3.0 0.0 44 91
+ 1.047532 3 10 ack 40 ------- 0 3.0 0.0 43 90
r 1.054724 10 3 tcp 1040 ------- 0 0.0 3.0 45 74
h 1.054724 3 10 ack 40 ------- 0 3.0 0.0 45 92
+ 1.05606 3 10 ack 40 ------- 0 3.0 0.0 44 91
r 1.063388 10 3 tcp 1040 ------- 0 0.0 3.0 46 75
h 1.063388 3 10 ack 40 ------- 0 3.0 0.0 46 93
+ 1.064724 3 10 ack 40 ------- 0 3.0 0.0 45 92
+ 1.073388 3 10 ack 40 ------- 0 3.0 0.0 46 93
h 1.105184 0 10 tcp 1040 ---A--- 0 0.0 3.0 27 94
+ 1.115184 0 10 tcp 1040 ---A--- 0 0.0 3.0 27 94
- 1.115184 0 10 tcp 1040 ---A--- 0 0.0 3.0 27 94
r 1.13362 10 3 tcp 1040 ---A--- 0 0.0 3.0 27 94
h 1.13362 3 10 ack 40 ------- 0 3.0 0.0 46 95
+ 1.14362 3 10 ack 40 ------- 0 3.0 0.0 46 95
- 1.292852 3 10 ack 40 ------- 0 3.0 0.0 28 73
- 1.29346 3 10 ack 40 ------- 0 3.0 0.0 29 76
- 1.294068 3 10 ack 40 ------- 0 3.0 0.0 30 77
- 1.294676 3 10 ack 40 ------- 0 3.0 0.0 31 78
- 1.295284 3 10 ack 40 ------- 0 3.0 0.0 32 79
- 1.295892 3 10 ack 40 ------- 0 3.0 0.0 33 80
- 1.2965 3 10 ack 40 ------- 0 3.0 0.0 34 81
- 1.297108 3 10 ack 40 ------- 0 3.0 0.0 35 82
- 1.297716 3 10 ack 40 ------- 0 3.0 0.0 36 83
- 1.298324 3 10 ack 40 ------- 0 3.0 0.0 37 84
- 1.298932 3 10 ack 40 ------- 0 3.0 0.0 38 85
- 1.29954 3 10 ack 40 ------- 0 3.0 0.0 39 86
- 1.300148 3 10 ack 40 ------- 0 3.0 0.0 40 87
- 1.300756 3 10 ack 40 ------- 0 3.0 0.0 41 88
- 1.301364 3 10 ack 40 ------- 0 3.0 0.0 42 89
- 1.301972 3 10 ack 40 ------- 0 3.0 0.0 43 90
- 1.30258 3 10 ack 40 ------- 0 3.0 0.0 44 91
r 1.30276 10 0 ack 40 ------- 0 3.0 0.0 27 72
h 1.30276 0 10 tcp 1040 ------- 0 0.0 3.0 28 96
h 1.30276 0 10 tcp 1040 ------- 0 0.0 3.0 29 97
- 1.303188 3 10 ack 40 ------- 0 3.0 0.0 45 92
r 1.303368 10 0 ack 40 ------- 0 3.0 0.0 28 73
h 1.303368 0 10 tcp 1040 ------- 0 0.0 3.0 30 98
h 1.303368 0 10 tcp 1040 ------- 0 0.0 3.0 31 99
- 1.303796 3 10 ack 40 ------- 0 3.0 0.0 46 93
r 1.303976 10 0 ack 40 ------- 0 3.0 0.0 29 76
h 1.303976 0 10 tcp 1040 ------- 0 0.0 3.0 32 100
h 1.303976 0 10 tcp 1040 ------- 0 0.0 3.0 33 101
- 1.304404 3 10 ack 40 ------- 0 3.0 0.0 46 95
r 1.304584 10 0 ack 40 ------- 0 3.0 0.0 30 77
h 1.304584 0 10 tcp 1040 ------- 0 0.0 3.0 34 102
h 1.304584 0 10 tcp 1040 ------- 0 0.0 3.0 35 103
r 1.305192 10 0 ack 40 ------- 0 3.0 0.0 31 78
h 1.305192 0 10 tcp 1040 ------- 0 0.0 3.0 36 104
h 1.305192 0 10 tcp 1040 ------- 0 0.0 3.0 37 105
r 1.3058 10 0 ack 40 ------- 0 3.0 0.0 32 79
h 1.3058 0 10 tcp 1040 ------- 0 0.0 3.0 38 106
h 1.3058 0 10 tcp 1040 ------- 0 0.0 3.0 39 107
r 1.306408 10 0 ack 40 ------- 0 3.0 0.0 33 80
h 1.306408 0 10 tcp 1040 ------- 0 0.0 3.0 40 108
h 1.306408 0 10 tcp 1040 ------- 0 0.0 3.0 41 109
r 1.307016 10 0 ack 40 ------- 0 3.0 0.0 34 81
h 1.307016 0 10 tcp 1040 ------- 0 0.0 3.0 42 110
h 1.307016 0 10 tcp 1040 ------- 0 0.0 3.0 43 111
r 1.307624 10 0 ack 40 ------- 0 3.0 0.0 35 82
h 1.307624 0 10 tcp 1040 ------- 0 0.0 3.0 44 112
h 1.307624 0 10 tcp 1040 ------- 0 0.0 3.0 45 113
r 1.308232 10 0 ack 40 ------- 0 3.0 0.0 36 83
h 1.308232 0 10 tcp 1040 ------- 0 0.0 3.0 46 114
r 1.30884 10 0 ack 40 ------- 0 3.0 0.0 37 84
h 1.30884 0 10 tcp 1040 ------- 0 0.0 3.0 47 115
r 1.309448 10 0 ack 40 ------- 0 3.0 0.0 38 85
h 1.309448 0 10 tcp 1040 ------- 0 0.0 3.0 48 116
r 1.310056 10 0 ack 40 ------- 0 3.0 0.0 39 86
h 1.310056 0 10 tcp 1040 ------- 0 0.0 3.0 49 117
r 1.310664 10 0 ack 40 ------- 0 3.0 0.0 40 87
h 1.310664 0 10 tcp 1040 ------- 0 0.0 3.0 50 118
r 1.311272 10 0 ack 40 ------- 0 3.0 0.0 41 88
h 1.311272 0 10 tcp 1040 ------- 0 0.0 3.0 51 119
r 1.31188 10 0 ack 40 ------- 0 3.0 0.0 42 89
h 1.31188 0 10 tcp 1040 ------- 0 0.0 3.0 52 120
r 1.312488 10 0 ack 40 ------- 0 3.0 0.0 43 90
h 1.312488 0 10 tcp 1040 ------- 0 0.0 3.0 53 121
+ 1.31276 0 10 tcp 1040 ------- 0 0.0 3.0 28 96
- 1.31276 0 10 tcp 1040 ------- 0 0.0 3.0 28 96
+ 1.31276 0 10 tcp 1040 ------- 0 0.0 3.0 29 97
r 1.313096 10 0 ack 40 ------- 0 3.0 0.0 44 91
h 1.313096 0 10 tcp 1040 ------- 0 0.0 3.0 54 122
+ 1.313368 0 10 tcp 1040 ------- 0 0.0 3.0 30 98
+ 1.313368 0 10 tcp 1040 ------- 0 0.0 3.0 31 99
r 1.313704 10 0 ack 40 ------- 0 3.0 0.0 45 92
h 1.313704 0 10 tcp 1040 ------- 0 0.0 3.0 55 123
+ 1.313976 0 10 tcp 1040 ------- 0 0.0 3.0 32 100
+ 1.313976 0 10 tcp 1040 ------- 0 0.0 3.0 33 101
r 1.314312 10 0 ack 40 ------- 0 3.0 0.0 46 93
h 1.314312 0 10 tcp 1040 ------- 0 0.0 3.0 56 124
h 1.314312 0 10 tcp 1040 ------- 0 0.0 3.0 57 125
+ 1.314584 0 10 tcp 1040 ------- 0 0.0 3.0 34 102
+ 1.314584 0 10 tcp 1040 ------- 0 0.0 3.0 35 103
r 1.31492 10 0 ack 40 ------- 0 3.0 0.0 46 95
h 1.31492 0 10 tcp 1040 ------- 0 0.0 3.0 58 126
+ 1.315192 0 10 tcp 1040 ------- 0 0.0 3.0 36 104
+ 1.315192 0 10 tcp 1040 ------- 0 0.0 3.0 37 105
+ 1.3158 0 10 tcp 1040 ------- 0 0.0 3.0 38 106
+ 1.3158 0 10 tcp 1040 ------- 0 0.0 3.0 39 107
+ 1.316408 0 10 tcp 1040 ------- 0 0.0 3.0 40 108
+ 1.316408 0 10 tcp 1040 ------- 0 0.0 3.0 41 109
+ 1.317016 0 10 tcp 1040 ------- 0 0.0 3.0 42 110
+ 1.317016 0 10 tcp 1040 ------- 0 0.0 3.0 43 111
+ 1.317624 0 10 tcp 1040 ------- 0 0.0 3.0 44 112
+ 1.317624 0 10 tcp 1040 ------- 0 0.0 3.0 45 113
+ 1.318232 0 10 tcp 1040 ------- 0 0.0 3.0 46 114
+ 1.31884 0 10 tcp 1040 ------- 0 0.0 3.0 47 115
+ 1.319448 0 10 tcp 1040 ------- 0 0.0 3.0 48 116
+ 1.320056 0 10 tcp 1040 ------- 0 0.0 3.0 49 117
+ 1.320664 0 10 tcp 1040 ------- 0 0.0 3.0 50 118
+ 1.321272 0 10 tcp 1040 ------- 0 0.0 3.0 51 119
- 1.321288 0 10 tcp 1040 ------- 0 0.0 3.0 29 97
+ 1.32188 0 10 tcp 1040 ------- 0 0.0 3.0 52 120
+ 1.322488 0 10 tcp 1040 ------- 0 0.0 3.0 53 121
+ 1.323096 0 10 tcp 1040 ------- 0 0.0 3.0 54 122
+ 1.323704 0 10 tcp 1040 ------- 0 0.0 3.0 55 123
+ 1.324312 0 10 tcp 1040 ------- 0 0.0 3.0 56 124
+ 1.324312 0 10 tcp 1040 ------- 0 0.0 3.0 57 125
+ 1.32492 0 10 tcp 1040 ------- 0 0.0 3.0 58 126
- 1.329816 0 10 tcp 1040 ------- 0 0.0 3.0 30 98
r 1.331196 10 3 tcp 1040 ------- 0 0.0 3.0 28 96
h 1.331196 3 10 ack 40 ------- 0 3.0 0.0 46 127
- 1.338344 0 10 tcp 1040 ------- 0 0.0 3.0 31 99
r 1.339724 10 3 tcp 1040 ------- 0 0.0 3.0 29 97
h 1.339724 3 10 ack 40 ------- 0 3.0 0.0 46 128
+ 1.341196 3 10 ack 40 ------- 0 3.0 0.0 46 127
- 1.341196 3 10 ack 40 ------- 0 3.0 0.0 46 127
- 1.346872 0 10 tcp 1040 ------- 0 0.0 3.0 32 100
r 1.348252 10 3 tcp 1040 ------- 0 0.0 3.0 30 98
h 1.348252 3 10 ack 40 ------- 0 3.0 0.0 46 129
+ 1.349724 3 10 ack 40 ------- 0 3.0 0.0 46 128
- 1.349724 3 10 ack 40 ------- 0 3.0 0.0 46 128
- 1.356144 0 10 tcp 1040 ------- 0 0.0 3.0 33 101
r 1.35678 10 3 tcp 1040 ------- 0 0.0 3.0 31 99
h 1.35678 3 10 ack 40 ------- 0 3.0 0.0 46 130
r 1.35752 10 0 ack 40 ------- 0 3.0 0.0 46 127
h 1.35752 0 10 tcp 1040 ------- 0 0.0 3.0 59 131
+ 1.358252 3 10 ack 40 ------- 0 3.0 0.0 46 129
- 1.358252 3 10 ack 40 ------- 0 3.0 0.0 46 129
r 1.366052 10 3 tcp 1040 ------- 0 0.0 3.0 32 100
h 1.366052 3 10 ack 40 ------- 0 3.0 0.0 46 132
- 1.366472 0 10 tcp 1040 ------- 0 0.0 3.0 34 102
+ 1.36678 3 10 ack 40 ------- 0 3.0 0.0 46 130
- 1.367212 3 10 ack 40 ------- 0 3.0 0.0 46 130
r 1.36744 10 0 ack 40 ------- 0 3.0 0.0 46 128
+ 1.36752 0 10 tcp 1040 ------- 0 0.0 3.0 59 131
+ 1.376052 3 10 ack 40 ------- 0 3.0 0.0 46 132
- 1.376052 3 10 ack 40 ------- 0 3.0 0.0 46 132
r 1.37638 10 3 tcp 1040 ------- 0 0.0 3.0 33 101
h 1.37638 3 10 ack 40 ------- 0 3.0 0.0 46 133
- 1.376488 0 10 tcp 1040 ------- 0 0.0 3.0 35 103
r 1.37712 10 0 ack 40 ------- 0 3.0 0.0 46 129
r 1.377864 10 0 ack 40 ------- 0 3.0 0.0 46 130
+ 1.38638 3 10 ack 40 ------- 0 3.0 0.0 46 133
- 1.38638 3 10 ack 40 ------- 0 3.0 0.0 46 133
r 1.386396 10 3 tcp 1040 ------- 0 0.0 3.0 34 102
h 1.386396 3 10 ack 40 ------- 0 3.0 0.0 46 134
r 1.390472 10 0 ack 40 ------- 0 3.0 0.0 46 132
- 1.390536 0 10 tcp 1040 ------- 0 0.0 3.0 36 104
+ 1.396396 3 10 ack 40 ------- 0 3.0 0.0 46 134
- 1.396396 3 10 ack 40 ------- 0 3.0 0.0 46 134
r 1.400444 10 3 tcp 1040 ------- 0 0.0 3.0 35 103
h 1.400444 3 10 ack 40 ------- 0 3.0 0.0 46 135
- 1.400968 0 10 tcp 1040 ------- 0 0.0 3.0 37 105
r 1.402344 10 0 ack 40 ------- 0 3.0 0.0 46 133
- 1.409632 0 10 tcp 1040 ------- 0 0.0 3.0 38 106
+ 1.410444 3 10 ack 40 ------- 0 3.0 0.0 46 135
r 1.410876 10 3 tcp 1040 ------- 0 0.0 3.0 36 104
h 1.410876 3 10 ack 40 ------- 0 3.0 0.0 46 136
- 1.418296 0 10 tcp 1040 ------- 0 0.0 3.0 39 107
r 1.41954 10 3 tcp 1040 ------- 0 0.0 3.0 37 105
h 1.41954 3 10 ack 40 ------- 0 3.0 0.0 46 137
+ 1.420876 3 10 ack 40 ------- 0 3.0 0.0 46 136
- 1.42696 0 10 tcp 1040 ------- 0 0.0 3.0 40 108
r 1.428204 10 3 tcp 1040 ------- 0 0.0 3.0 38 106
h 1.428204 3 10 ack 40 ------- 0 3.0 0.0 46 138
+ 1.42954 3 10 ack 40 ------- 0 3.0 0.0 46 137
- 1.436136 0 10 tcp 1040 ------- 0 0.0 3.0 41 109
r 1.436868 10 3 tcp 1040 ------- 0 0.0 3.0 39 107
h 1.436868 3 10 ack 40 ------- 0 3.0 0.0 46 139
+ 1.438204 3 10 ack 40 ------- 0 3.0 0.0 46 138
- 1.445312 0 10 tcp 1040 ------- 0 0.0 3.0 42 110
r 1.446044 10 3 tcp 1040 ------- 0 0.0 3.0 40 108
h 1.446044 3 10 ack 40 ------- 0 3.0 0.0 46 140
+ 1.446868 3 10 ack 40 ------- 0 3.0 0.0 46 139
- 1.454488 0 10 tcp 1040 ------- 0 0.0 3.0 43 111
r 1.45522 10 3 tcp 1040 ------- 0 0.0 3.0 41 109
h 1.45522 3 10 ack 40 ------- 0 3.0 0.0 46 141
+ 1.456044 3 10 ack 40 ------- 0 3.0 0.0 46 140
- 1.463016 0 10 tcp 1040 ------- 0 0.0 3.0 44 112
r 1.464396 10 3 tcp 1040 ------- 0 0.0 3.0 42 110
h 1.464396 3 10 ack 40 ------- 0 3.0 0.0 46 142
+ 1.46522 3 10 ack 40 ------- 0 3.0 0.0 46 141
- 1.472192 0 10 tcp 1040 ------- 0 0.0 3.0 45 113
r 1.472924 10 3 tcp 1040 ------- 0 0.0 3.0 43 111
h 1.472924 3 10 ack 40 ------- 0 3.0 0.0 46 143
+ 1.474396 3 10 ack 40 ------- 0 3.0 0.0 46 142
- 1.48072 0 10 tcp 1040 ------- 0 0.0 3.0 46 114
r 1.4821 10 3 tcp 1040 ------- 0 0.0 3.0 44 112
h 1.4821 3 10 ack 40 ------- 0 3.0 0.0 46 144
+ 1.482924 3 10 ack 40 ------- 0 3.0 0.0 46 143
- 1.489248 0 10 tcp 1040 ------- 0 0.0 3.0 47 115
r 1.490628 10 3 tcp 1040 ------- 0 0.0 3.0 45 113
h 1.490628 3 10 ack 40 ------- 0 3.0 0.0 46 145
+ 1.4921 3 10 ack 40 ------- 0 3.0 0.0 46 144
- 1.497776 0 10 tcp 1040 ------- 0 0.0 3.0 48 116
r 1.499156 10 3 tcp 1040 ------- 0 0.0 3.0 46 114
h 1.499156 3 10 ack 40 ------- 0 3.0 0.0 46 146
+ 1.500628 3 10 ack 40 ------- 0 3.0 0.0 46 145
- 1.506304 0 10 tcp 1040 ------- 0 0.0 3.0 49 117
r 1.507684 10 3 tcp 1040 ------- 0 0.0 3.0 47 115
h 1.507684 3 10 ack 40 ------- 0 3.0 0.0 47 147
+ 1.509156 3 10 ack 40 ------- 0 3.0 0.0 46 146
- 1.514832 0 10 tcp 1040 ------- 0 0.0 3.0 50 118
r 1.516212 10 3 tcp 1040 ------- 0 0.0 3.0 48 116
h 1.516212 3 10 ack 40 ------- 0 3.0 0.0 48 148
+ 1.517684 3 10 ack 40 ------- 0 3.0 0.0 47 147
- 1.52336 0 10 tcp 1040 ------- 0 0.0 3.0 51 119
r 1.52474 10 3 tcp 1040 ------- 0 0.0 3.0 49 117
h 1.52474 3 10 ack 40 ------- 0 3.0 0.0 49 149
+ 1.526212 3 10 ack 40 ------- 0 3.0 0.0 48 148
- 1.531888 0 10 tcp 1040 ------- 0 0.0 3.0 52 120
r 1.533268 10 3 tcp 1040 ------- 0 0.0 3.0 50 118
h 1.533268 3 10 ack 40 ------- 0 3.0 0.0 50 150
+ 1.53474 3 10 ack 40 ------- 0 3.0 0.0 49 149
- 1.540552 0 10 tcp 1040 ------- 0 0.0 3.0 53 121
r 1.541796 10 3 tcp 1040 ------- 0 0.0 3.0 51 119
h 1.541796 3 10 ack 40 ------- 0 3.0 0.0 51 151
+ 1.543268 3 10 ack 40 ------- 0 3.0 0.0 50 150
- 1.54908 0 10 tcp 1040 ------- 0 0.0 3.0 54 122
r 1.55046 10 3 tcp 1040 ------- 0 0.0 3.0 52 120
h 1.55046 3 10 ack 40 ------- 0 3.0 0.0 52 152
+ 1.551796 3 10 ack 40 ------- 0 3.0 0.0 51 151
- 1.557608 0 10 tcp 1040 ------- 0 0.0 3.0 55 123
r 1.558988 10 3 tcp 1040 ------- 0 0.0 3.0 53 121
h 1.558988 3 10 ack 40 ------- 0 3.0 0.0 53 153
+ 1.56046 3 10 ack 40 ------- 0 3.0 0.0 52 152
- 1.566136 0 10 tcp 1040 ------- 0 0.0 3.0 56 124
r 1.567516 10 3 tcp 1040 ------- 0 0.0 3.0 54 122
h 1.567516 3 10 ack 40 ------- 0 3.0 0.0 54 154
+ 1.568988 3 10 ack 40 ------- 0 3.0 0.0 53 153
- 1.574664 0 10 tcp 1040 ------- 0 0.0 3.0 57 125
r 1.576044 10 3 tcp 1040 ------- 0 0.0 3.0 55 123
h 1.576044 3 10 ack 40 ------- 0 3.0 0.0 55 155
+ 1.577516 3 10 ack 40 ------- 0 3.0 0.0 54 154
- 1.583192 0 10 tcp 1040 ------- 0 0.0 3.0 58 126
r 1.584572 10 3 tcp 1040 ------- 0 0.0 3.0 56 124
h 1.584572 3 10 ack 40 ------- 0 3.0 0.0 56 156
+ 1.586044 3 10 ack 40 ------- 0 3.0 0.0 55 155
- 1.59172 0 10 tcp 1040 ------- 0 0.0 3.0 59 131
r 1.5931 10 3 tcp 1040 ------- 0 0.0 3.0 57 125
h 1.5931 3 10 ack 40 ------- 0 3.0 0.0 57 157
+ 1.594572 3 10 ack 40 ------- 0 3.0 0.0 56 156
r 1.601628 10 3 tcp 1040 ------- 0 0.0 3.0 58 126
h 1.601628 3 10 ack 40 ------- 0 3.0 0.0 58 158
+ 1.6031 3 10 ack 40 ------- 0 3.0 0.0 57 157
r 1.610292 10 3 tcp 1040 ------- 0 0.0 3.0 59 131
h 1.610292 3 10 ack 40 ------- 0 3.0 0.0 59 159
+ 1.611628 3 10 ack 40 ------- 0 3.0 0.0 58 158
+ 1.620292 3 10 ack 40 ------- 0 3.0 0.0 59 159
h 1.714312 0 10 tcp 1040 ---A--- 0 0.0 3.0 47 160
+ 1.724312 0 10 tcp 1040 ---A--- 0 0.0 3.0 47 160
- 1.724312 0 10 tcp 1040 ---A--- 0 0.0 3.0 47 160
r 1.742748 10 3 tcp 1040 ---A--- 0 0.0 3.0 47 160
h 1.742748 3 10 ack 40 ------- 0 3.0 0.0 59 161
+ 1.752748 3 10 ack 40 ------- 0 3.0 0.0 59 161
- 1.843852 3 10 ack 40 ------- 0 3.0 0.0 46 135
- 1.84446 3 10 ack 40 ------- 0 3.0 0.0 46 136
- 1.845068 3 10 ack 40 ------- 0 3.0 0.0 46 137
- 1.845676 3 10 ack 40 ------- 0 3.0 0.0 46 138
- 1.846284 3 10 ack 40 ------- 0 3.0 0.0 46 139
- 1.846892 3 10 ack 40 ------- 0 3.0 0.0 46 140
- 1.8475 3 10 ack 40 ------- 0 3.0 0.0 46 141
- 1.848108 3 10 ack 40 ------- 0 3.0 0.0 46 142
- 1.848716 3 10 ack 40 ------- 0 3.0 0.0 46 143
- 1.849324 3 10 ack 40 ------- 0 3.0 0.0 46 144
- 1.849932 3 10 ack 40 ------- 0 3.0 0.0 46 145
- 1.85054 3 10 ack 40 ------- 0 3.0 0.0 46 146
- 1.851148 3 10 ack 40 ------- 0 3.0 0.0 47 147
- 1.851756 3 10 ack 40 ------- 0 3.0 0.0 48 148
- 1.852364 3 10 ack 40 ------- 0 3.0 0.0 49 149
- 1.852972 3 10 ack 40 ------- 0 3.0 0.0 50 150
- 1.85358 3 10 ack 40 ------- 0 3.0 0.0 51 151
r 1.85376 10 0 ack 40 ------- 0 3.0 0.0 46 134
- 1.854188 3 10 ack 40 ------- 0 3.0 0.0 52 152
r 1.854368 10 0 ack 40 ------- 0 3.0 0.0 46 135
- 1.854796 3 10 ack 40 ------- 0 3.0 0.0 53 153
r 1.854976 10 0 ack 40 ------- 0 3.0 0.0 46 136
- 1.855404 3 10 ack 40 ------- 0 3.0 0.0 54 154
r 1.855584 10 0 ack 40 ------- 0 3.0 0.0 46 137
- 1.856012 3 10 ack 40 ------- 0 3.0 0.0 55 155
r 1.856192 10 0 ack 40 ------- 0 3.0 0.0 46 138
- 1.85662 3 10 ack 40 ------- 0 3.0 0.0 56 156
r 1.8568 10 0 ack 40 ------- 0 3.0 0.0 46 139
- 1.857228 3 10 ack 40 ------- 0 3.0 0.0 57 157
r 1.857408 10 0 ack 40 ------- 0 3.0 0.0 46 140