V -t * -v 1.0a5 -a 0
A -t * -n 1 -p 0 -o 0x7fffffff -c 30 -a 1
A -t * -h 1 -m 1073741823 -s 0
n -t * -a 8 -s 8 -S UP -v circle -c black -i black
n -t * -a 4 -s 4 -S UP -v circle -c black -i black
n -t * -a 0 -s 0 -S UP -v circle -c black -i black
n -t * -a 9 -s 9 -S UP -v circle -c black -i black
n -t * -a 5 -s 5 -S UP -v circle -c black -i black
n -t * -a 1 -s 1 -S UP -v circle -c black -i black
n -t * -a 6 -s 6 -S UP -v circle -c black -i black
n -t * -a 2 -s 2 -S UP -v circle -c black -i black
n -t * -a 7 -s 7 -S UP -v circle -c black -i black
n -t * -a 3 -s 3 -S UP -v circle -c black -i black
X -t * -n 10 -r 1Mb -D 10ms -o left
L -t * -s 10 -d 0 -o up
L -t * -s 10 -d 1 -o down
L -t * -s 10 -d 2 -o up
L -t * -s 10 -d 3 -o down
L -t * -s 10 -d 4 -o up
L -t * -s 10 -d 5 -o down
L -t * -s 10 -d 6 -o up
L -t * -s 10 -d 7 -o down
L -t * -s 10 -d 8 -o up
L -t * -s 10 -d 9 -o down
h -t 0.5 -s 0 -d 10 -p tcp -e 40 -c 0 -i 0 -a 0 -x {0.0 3.0 0 ------- null}
+ -t 0.51 -s 0 -d 10 -p tcp -e 40 -c 0 -i 0 -a 0 -x {0.0 3.0 0 ------- null}
- -t 0.51 -s 0 -d 10 -p tcp -e 40 -c 0 -i 0 -a 0 -x {0.0 3.0 0 ------- null}
h -t 0.51 -s 0 -d 10 -p tcp -e 40 -c 0 -i 0 -a 0 -x {0.0 3.0 -1 ------- null}
r -t 0.520516 -s 10 -d 3 -p tcp -e 40 -c 0 -i 0 -a 0 -x {0.0 3.0 0 ------- null}
h -t 0.520516 -s 3 -d 10 -p ack -e 40 -c 0 -i 1 -a 0 -x {3.0 0.0 0 ------- null}
+ -t 0.530516 -s 3 -d 10 -p ack -e 40 -c 0 -i 1 -a 0 -x {3.0 0.0 0 ------- null}
- -t 0.530516 -s 3 -d 10 -p ack -e 40 -c 0 -i 1 -a 0 -x {3.0 0.0 0 ------- null}
h -t 0.530516 -s 3 -d 10 -p ack -e 40 -c 0 -i 1 -a 0 -x {3.0 0.0 -1 ------- null}
r -t 0.541032 -s 10 -d 0 -p ack -e 40 -c 0 -i 1 -a 0 -x {3.0 0.0 0 ------- null}
h -t 0.541032 -s 0 -d 10 -p tcp -e 1040 -c 0 -i 2 -a 0 -x {0.0 3.0 1 ------- null}
h -t 0.541032 -s 0 -d 10 -p tcp -e 1040 -c 0 -i 3 -a 0 -x {0.0 3.0 2 ------- null}
+ -t 0.551032 -s 0 -d 10 -p tcp -e 1040 -c 0 -i 2 -a 0 -x {0.0 3.0 1 ------- null}
- -t 0.551032 -s 0 -d 10 -p tcp -e 1040 -c 0 -i 2 -a 0 -x {0.0 3.0 1 ------- null}
h -t 0.551032 -s 0 -d 10 -p tcp -e 1040 -c 0 -i 2 -a 0 -x {0.0 3.0 -1 ------- null}
+ -t 0.551032 -s 0 -d 10 -p tcp -e 1040 -c 0 -i 3 -a 0 -x {0.0 3.0 2 ------- null}
- -t 0.55956 -s 0 -d 10 -p tcp -e 1040 -c 0 -i 3 -a 0 -x {0.0 3.0 2 ------- null}
h -t 0.55956 -s 0 -d 10 -p tcp -e 1040 -c 0 -i 3 -a 0 -x {0.0 3.0 -1 ------- null}
r -t 0.569468 -s 10 -d 3 -p tcp -e 1040 -c 0 -i 2 -a 0 -x {0.0 3.0 1 ------- null}
h -t 0.569468 -s 3 -d 10 -p ack -e 40 -c 0 -i 4 -a 0 -x {3.0 0.0 1 ------- null}
r -t 0.577996 -s 10 -d 3 -p tcp -e 1040 -c 0 -i 3 -a 0 -x {0.0 3.0 2 ------- null}
h -t 0.577996 -s 3 -d 10 -p ack -e 40 -c 0 -i 5 -a 0 -x {3.0 0.0 2 ------- null}
+ -t 0.579468 -s 3 -d 10 -p ack -e 40 -c 0 -i 4 -a 0 -x {3.0 0.0 1 ------- null}
- -t 0.579468 -s 3 -d 10 -p ack -e 40 -c 0 -i 4 -a 0 -x {3.0 0.0 1 ------- null}
h -t 0.579468 -s 3 -d 10 -p ack -e 40 -c 0 -i 4 -a 0 -x {3.0 0.0 -1 ------- null}
+ -t 0.587996 -s 3 -d 10 -p ack -e 40 -c 0 -i 5 -a 0 -x {3.0 0.0 2 ------- null}
- -t 0.587996 -s 3 -d 10 -p ack -e 40 -c 0 -i 5 -a 0 -x {3.0 0.0 2 ------- null}
h -t 0.587996 -s 3 -d 10 -p ack -e 40 -c 0 -i 5 -a 0 -x {3.0 0.0 -1 ------- null}
r -t 0.589984 -s 10 -d 0 -p ack -e 40 -c 0 -i 4 -a 0 -x {3.0 0.0 1 ------- null}
h -t 0.589984 -s 0 -d 10 -p tcp -e 1040 -c 0 -i 6 -a 0 -x {0.0 3.0 3 ------- null}
h -t 0.589984 -s 0 -d 10 -p tcp -e 1040 -c 0 -i 7 -a 0 -x {0.0 3.0 4 ------- null}
r -t 0.598512 -s 10 -d 0 -p ack -e 40 -c 0 -i 5 -a 0 -x {3.0 0.0 2 ------- null}
h -t 0.598512 -s 0 -d 10 -p tcp -e 1040 -c 0 -i 8 -a 0 -x {0.0 3.0 5 ------- null}
h -t 0.598512 -s 0 -d 10 -p tcp -e 1040 -c 0 -i 9 -a 0 -x {0.0 3.0 6 ------- null}
+ -t 0.599984 -s 0 -d 10 -p tcp -e 1040 -c 0 -i 6 -a 0 -x {0.0 3.0 3 ------- null}
- -t 0.599984 -s 0 -d 10 -p tcp -e 1040 -c 0 -i 6 -a 0 -x {0.0 3.0 3 ------- null}
h -t 0.599984 -s 0 -d 10 -p tcp -e 1040 -c 0 -i 6 -a 0 -x {0.0 3.0 -1 ------- null}
+ -t 0.599984 -s 0 -d 10 -p tcp -e 1040 -c 0 -i 7 -a 0 -x {0.0 3.0 4 ------- null}
+ -t 0.608512 -s 0 -d 10 -p tcp -e 1040 -c 0 -i 8 -a 0 -x {0.0 3.0 5 ------- null}
+ -t 0.608512 -s 0 -d 10 -p tcp -e 1040 -c 0 -i 9 -a 0 -x {0.0 3.0 6 ------- null}
- -t 0.608512 -s 0 -d 10 -p tcp -e 1040 -c 0 -i 7 -a 0 -x {0.0 3.0 4 ------- null}
h -t 0.608512 -s 0 -d 10 -p tcp -e 1040 -c 0 -i 7 -a 0 -x {0.0 3.0 -1 ------- null}
- -t 0.61704 -s 0 -d 10 -p tcp -e 1040 -c 0 -i 8 -a 0 -x {0.0 3.0 5 ------- null}
h -t 0.61704 -s 0 -d 10 -p tcp -e 1040 -c 0 -i 8 -a 0 -x {0.0 3.0 -1 ------- null}
r -t 0.61842 -s 10 -d 3 -p tcp -e 1040 -c 0 -i 6 -a 0 -x {0.0 3.0 3 ------- null}
h -t 0.61842 -s 3 -d 10 -p ack -e 40 -c 0 -i 10 -a 0 -x {3.0 0.0 3 ------- null}
- -t 0.625568 -s 0 -d 10 -p tcp -e 1040 -c 0 -i 9 -a 0 -x {0.0 3.0 6 ------- null}
h -t 0.625568 -s 0 -d 10 -p tcp -e 1040 -c 0 -i 9 -a 0 -x {0.0 3.0 -1 ------- null}
r -t 0.626948 -s 10 -d 3 -p tcp -e 1040 -c 0 -i 7 -a 0 -x {0.0 3.0 4 ------- null}
h -t 0.626948 -s 3 -d 10 -p ack -e 40 -c 0 -i 11 -a 0 -x {3.0 0.0 4 ------- null}
+ -t 0.62842 -s 3 -d 10 -p ack -e 40 -c 0 -i 10 -a 0 -x {3.0 0.0 3 ------- null}
- -t 0.62842 -s 3 -d 10 -p ack -e 40 -c 0 -i 10 -a 0 -x {3.0 0.0 3 ------- null}
h -t 0.62842 -s 3 -d 10 -p ack -e 40 -c 0 -i 10 -a 0 -x {3.0 0.0 -1 ------- null}
r -t 0.635476 -s 10 -d 3 -p tcp -e 1040 -c 0 -i 8 -a 0 -x {0.0 3.0 5 ------- null}
h -t 0.635476 -s 3 -d 10 -p ack -e 40 -c 0 -i 12 -a 0 -x {3.0 0.0 5 ------- null}
+ -t 0.636948 -s 3 -d 10 -p ack -e 40 -c 0 -i 11 -a 0 -x {3.0 0.0 4 ------- null}
- -t 0.636948 -s 3 -d 10 -p ack -e 40 -c 0 -i 11 -a 0 -x {3.0 0.0 4 ------- null}
h -t 0.636948 -s 3 -d 10 -p ack -e 40 -c 0 -i 11 -a 0 -x {3.0 0.0 -1 ------- null}
r -t 0.644004 -s 10 -d 3 -p tcp -e 1040 -c 0 -i 9 -a 0 -x {0.0 3.0 6 ------- null}
h -t 0.644004 -s 3 -d 10 -p ack -e 40 -c 0 -i 13 -a 0 -x {3.0 0.0 6 ------- null}
r -t 0.644616 -s 10 -d 0 -p ack -e 40 -c 0 -i 10 -a 0 -x {3.0 0.0 3 ------- null}
h -t 0.644616 -s 0 -d 10 -p tcp -e 1040 -c 0 -i 14 -a 0 -x {0.0 3.0 7 ------- null}
h -t 0.644616 -s 0 -d 10 -p tcp -e 1040 -c 0 -i 15 -a 0 -x {0.0 3.0 8 ------- null}
+ -t 0.645476 -s 3 -d 10 -p ack -e 40 -c 0 -i 12 -a 0 -x {3.0 0.0 5 ------- null}
- -t 0.645476 -s 3 -d 10 -p ack -e 40 -c 0 -i 12 -a 0 -x {3.0 0.0 5 ------- null}
h -t 0.645476 -s 3 -d 10 -p ack -e 40 -c 0 -i 12 -a 0 -x {3.0 0.0 -1 ------- null}
r -t 0.647464 -s 10 -d 0 -p ack -e 40 -c 0 -i 11 -a 0 -x {3.0 0.0 4 ------- null}
h -t 0.647464 -s 0 -d 10 -p tcp -e 1040 -c 0 -i 16 -a 0 -x {0.0 3.0 9 ------- null}
h -t 0.647464 -s 0 -d 10 -p tcp -e 1040 -c 0 -i 17 -a 0 -x {0.0 3.0 10 ------- null}
+ -t 0.654004 -s 3 -d 10 -p ack -e 40 -c 0 -i 13 -a 0 -x {3.0 0.0 6 ------- null}
- -t 0.654004 -s 3 -d 10 -p ack -e 40 -c 0 -i 13 -a 0 -x {3.0 0.0 6 ------- null}
h -t 0.654004 -s 3 -d 10 -p ack -e 40 -c 0 -i 13 -a 0 -x {3.0 0.0 -1 ------- null}
+ -t 0.654616 -s 0 -d 10 -p tcp -e 1040 -c 0 -i 14 -a 0 -x {0.0 3.0 7 ------- null}
- -t 0.654616 -s 0 -d 10 -p tcp -e 1040 -c 0 -i 14 -a 0 -x {0.0 3.0 7 ------- null}
h -t 0.654616 -s 0 -d 10 -p tcp -e 1040 -c 0 -i 14 -a 0 -x {0.0 3.0 -1 ------- null}
+ -t 0.654616 -s 0 -d 10 -p tcp -e 1040 -c 0 -i 15 -a 0 -x {0.0 3.0 8 ------- null}
r -t 0.655992 -s 10 -d 0 -p ack -e 40 -c 0 -i 12 -a 0 -x {3.0 0.0 5 ------- null}
h -t 0.655992 -s 0 -d 10 -p tcp -e 1040 -c 0 -i 18 -a 0 -x {0.0 3.0 11 ------- null}
h -t 0.655992 -s 0 -d 10 -p tcp -e 1040 -c 0 -i 19 -a 0 -x {0.0 3.0 12 ------- null}
+ -t 0.657464 -s 0 -d 10 -p tcp -e 1040 -c 0 -i 16 -a 0 -x {0.0 3.0 9 ------- null}
+ -t 0.657464 -s 0 -d 10 -p tcp -e 1040 -c 0 -i 17 -a 0 -x {0.0 3.0 10 ------- null}
- -t 0.663144 -s 0 -d 10 -p tcp -e 1040 -c 0 -i 15 -a 0 -x {0.0 3.0 8 ------- null}
h -t 0.663144 -s 0 -d 10 -p tcp -e 1040 -c 0 -i 15 -a 0 -x {0.0 3.0 -1 ------- null}
r -t 0.66452 -s 10 -d 0 -p ack -e 40 -c 0 -i 13 -a 0 -x {3.0 0.0 6 ------- null}
h -t 0.66452 -s 0 -d 10 -p tcp -e 1040 -c 0 -i 20 -a 0 -x {0.0 3.0 13 ------- null}
h -t 0.66452 -s 0 -d 10 -p tcp -e 1040 -c 0 -i 21 -a 0 -x {0.0 3.0 14 ------- null}
+ -t 0.665992 -s 0 -d 10 -p tcp -e 1040 -c 0 -i 18 -a 0 -x {0.0 3.0 11 ------- null}
+ -t 0.665992 -s 0 -d 10 -p tcp -e 1040 -c 0 -i 19 -a 0 -x {0.0 3.0 12 ------- null}
- -t 0.671672 -s 0 -d 10 -p tcp -e 1040 -c 0 -i 16 -a 0 -x {0.0 3.0 9 ------- null}
h -t 0.671672 -s 0 -d 10 -p tcp -e 1040 -c 0 -i 16 -a 0 -x {0.0 3.0 -1 ------- null}
r -t 0.673052 -s 10 -d 3 -p tcp -e 1040 -c 0 -i 14 -a 0 -x {0.0 3.0 7 ------- null}
h -t 0.673052 -s 3 -d 10 -p ack -e 40 -c 0 -i 22 -a 0 -x {3.0 0.0 7 ------- null}
+ -t 0.67452 -s 0 -d 10 -p tcp -e 1040 -c 0 -i 20 -a 0 -x {0.0 3.0 13 ------- null}
+ -t 0.67452 -s 0 -d 10 -p tcp -e 1040 -c 0 -i 21 -a 0 -x {0.0 3.0 14 ------- null}
- -t 0.6802 -s 0 -d 10 -p tcp -e 1040 -c 0 -i 17 -a 0 -x {0.0 3.0 10 ------- null}
h -t 0.6802 -s 0 -d 10 -p tcp -e 1040 -c 0 -i 17 -a 0 -x {0.0 3.0 -1 ------- null}
r -t 0.68158 -s 10 -d 3 -p tcp -e 1040 -c 0 -i 15 -a 0 -x {0.0 3.0 8 ------- null}
h -t 0.68158 -s 3 -d 10 -p ack -e 40 -c 0 -i 23 -a 0 -x {3.0 0.0 8 ------- null}
+ -t 0.683052 -s 3 -d 10 -p ack -e 40 -c 0 -i 22 -a 0 -x {3.0 0.0 7 ------- null}
- -t 0.683052 -s 3 -d 10 -p ack -e 40 -c 0 -i 22 -a 0 -x {3.0 0.0 7 ------- null}
h -t 0.683052 -s 3 -d 10 -p ack -e 40 -c 0 -i 22 -a 0 -x {3.0 0.0 -1 ------- null}
- -t 0.688728 -s 0 -d 10 -p tcp -e 1040 -c 0 -i 18 -a 0 -x {0.0 3.0 11 ------- null}
h -t 0.688728 -s 0 -d 10 -p tcp -e 1040 -c 0 -i 18 -a 0 -x {0.0 3.0 -1 ------- null}
r -t 0.690108 -s 10 -d 3 -p tcp -e 1040 -c 0 -i 16 -a 0 -x {0.0 3.0 9 ------- null}
h -t 0.690108 -s 3 -d 10 -p ack -e 40 -c 0 -i 24 -a 0 -x {3.0 0.0 9 ------- null}
+ -t 0.69158 -s 3 -d 10 -p ack -e 40 -c 0 -i 23 -a 0 -x {3.0 0.0 8 ------- null}
- -t 0.69158 -s 3 -d 10 -p ack -e 40 -c 0 -i 23 -a 0 -x {3.0 0.0 8 ------- null}
h -t 0.69158 -s 3 -d 10 -p ack -e 40 -c 0 -i 23 -a 0 -x {3.0 0.0 -1 ------- null}
- -t 0.698 -s 0 -d 10 -p tcp -e 1040 -c 0 -i 19 -a 0 -x {0.0 3.0 12 ------- null}
h -t 0.698 -s 0 -d 10 -p tcp -e 1040 -c 0 -i 19 -a 0 -x {0.0 3.0 -1 ------- null}
r -t 0.698636 -s 10 -d 3 -p tcp -e 1040 -c 0 -i 17 -a 0 -x {0.0 3.0 10 ------- null}
h -t 0.698636 -s 3 -d 10 -p ack -e 40 -c 0 -i 25 -a 0 -x {3.0 0.0 10 ------- null}
r -t 0.699376 -s 10 -d 0 -p ack -e 40 -c 0 -i 22 -a 0 -x {3.0 0.0 7 ------- null}
h -t 0.699376 -s 0 -d 10 -p tcp -e 1040 -c 0 -i 26 -a 0 -x {0.0 3.0 15 ------- null}
h -t 0.699376 -s 0 -d 10 -p tcp -e 1040 -c 0 -i 27 -a 0 -x {0.0 3.0 16 ------- null}
+ -t 0.700108 -s 3 -d 10 -p ack -e 40 -c 0 -i 24 -a 0 -x {3.0 0.0 9 ------- null}
- -t 0.706664 -s 0 -d 10 -p tcp -e 1040 -c 0 -i 20 -a 0 -x {0.0 3.0 13 ------- null}
h -t 0.706664 -s 0 -d 10 -p tcp -e 1040 -c 0 -i 20 -a 0 -x {0.0 3.0 -1 ------- null}
r -t 0.707908 -s 10 -d 3 -p tcp -e 1040 -c 0 -i 18 -a 0 -x {0.0 3.0 11 ------- null}
h -t 0.707908 -s 3 -d 10 -p ack -e 40 -c 0 -i 28 -a 0 -x {3.0 0.0 11 ------- null}
+ -t 0.708636 -s 3 -d 10 -p ack -e 40 -c 0 -i 25 -a 0 -x {3.0 0.0 10 ------- null}
+ -t 0.709376 -s 0 -d 10 -p tcp -e 1040 -c 0 -i 26 -a 0 -x {0.0 3.0 15 ------- null}
+ -t 0.709376 -s 0 -d 10 -p tcp -e 1040 -c 0 -i 27 -a 0 -x {0.0 3.0 16 ------- null}
- -t 0.71584 -s 0 -d 10 -p tcp -e 1040 -c 0 -i 21 -a 0 -x {0.0 3.0 14 ------- null}
h -t 0.71584 -s 0 -d 10 -p tcp -e 1040 -c 0 -i 21 -a 0 -x {0.0 3.0 -1 ------- null}
r -t 0.716572 -s 10 -d 3 -p tcp -e 1040 -c 0 -i 19 -a 0 -x {0.0 3.0 12 ------- null}
h -t 0.716572 -s 3 -d 10 -p ack -e 40 -c 0 -i 29 -a 0 -x {3.0 0.0 12 ------- null}
+ -t 0.717908 -s 3 -d 10 -p ack -e 40 -c 0 -i 28 -a 0 -x {3.0 0.0 11 ------- null}
- -t 0.724504 -s 0 -d 10 -p tcp -e 1040 -c 0 -i 26 -a 0 -x {0.0 3.0 15 ------- null}
h -t 0.724504 -s 0 -d 10 -p tcp -e 1040 -c 0 -i 26 -a 0 -x {0.0 3.0 -1 ------- null}
r -t 0.725748 -s 10 -d 3 -p tcp -e 1040 -c 0 -i 20 -a 0 -x {0.0 3.0 13 ------- null}
h -t 0.725748 -s 3 -d 10 -p ack -e 40 -c 0 -i 30 -a 0 -x {3.0 0.0 13 ------- null}
+ -t 0.726572 -s 3 -d 10 -p ack -e 40 -c 0 -i 29 -a 0 -x {3.0 0.0 12 ------- null}
- -t 0.73368 -s 0 -d 10 -p tcp -e 1040 -c 0 -i 27 -a 0 -x {0.0 3.0 16 ------- null}
h -t 0.73368 -s 0 -d 10 -p tcp -e 1040 -c 0 -i 27 -a 0 -x {0.0 3.0 -1 ------- null}
r -t 0.734412 -s 10 -d 3 -p tcp -e 1040 -c 0 -i 21 -a 0 -x {0.0 3.0 14 ------- null}
h -t 0.734412 -s 3 -d 10 -p ack -e 40 -c 0 -i 31 -a 0 -x {3.0 0.0 14 ------- null}
+ -t 0.735748 -s 3 -d 10 -p ack -e 40 -c 0 -i 30 -a 0 -x {3.0 0.0 13 ------- null}
r -t 0.743588 -s 10 -d 3 -p tcp -e 1040 -c 0 -i 26 -a 0 -x {0.0 3.0 15 ------- null}
h -t 0.743588 -s 3 -d 10 -p ack -e 40 -c 0 -i 32 -a 0 -x {3.0 0.0 15 ------- null}
+ -t 0.744412 -s 3 -d 10 -p ack -e 40 -c 0 -i 31 -a 0 -x {3.0 0.0 14 ------- null}
- -t 0.746708 -s 3 -d 10 -p ack -e 40 -c 0 -i 24 -a 0 -x {3.0 0.0 9 ------- null}
h -t 0.746708 -s 3 -d 10 -p ack -e 40 -c 0 -i 24 -a 0 -x {3.0 0.0 -1 ------- null}
- -t 0.747316 -s 3 -d 10 -p ack -e 40 -c 0 -i 25 -a 0 -x {3.0 0.0 10 ------- null}
h -t 0.747316 -s 3 -d 10 -p ack -e 40 -c 0 -i 25 -a 0 -x {3.0 0.0 -1 ------- null}
- -t 0.747923999999999 -s 3 -d 10 -p ack -e 40 -c 0 -i 28 -a 0 -x {3.0 0.0 11 ------- null}
h -t 0.747923999999999 -s 3 -d 10 -p ack -e 40 -c 0 -i 28 -a 0 -x {3.0 0.0 -1 ------- null}
- -t 0.748531999999999 -s 3 -d 10 -p ack -e 40 -c 0 -i 29 -a 0 -x {3.0 0.0 12 ------- null}
h -t 0.748531999999999 -s 3 -d 10 -p ack -e 40 -c 0 -i 29 -a 0 -x {3.0 0.0 -1 ------- null}
- -t 0.749139999999999 -s 3 -d 10 -p ack -e 40 -c 0 -i 30 -a 0 -x {3.0 0.0 13 ------- null}
h -t 0.749139999999999 -s 3 -d 10 -p ack -e 40 -c 0 -i 30 -a 0 -x {3.0 0.0 -1 ------- null}
- -t 0.749747999999999 -s 3 -d 10 -p ack -e 40 -c 0 -i 31 -a 0 -x {3.0 0.0 14 ------- null}
h -t 0.749747999999999 -s 3 -d 10 -p ack -e 40 -c 0 -i 31 -a 0 -x {3.0 0.0 -1 ------- null}
r -t 0.752252 -s 10 -d 3 -p tcp -e 1040 -c 0 -i 27 -a 0 -x {0.0 3.0 16 ------- null}
h -t 0.752252 -s 3 -d 10 -p ack -e 40 -c 0 -i 33 -a 0 -x {3.0 0.0 16 ------- null}
+ -t 0.753588 -s 3 -d 10 -p ack -e 40 -c 0 -i 32 -a 0 -x {3.0 0.0 15 ------- null}
- -t 0.753588 -s 3 -d 10 -p ack -e 40 -c 0 -i 32 -a 0 -x {3.0 0.0 15 ------- null}
h -t 0.753588 -s 3 -d 10 -p ack -e 40 -c 0 -i 32 -a 0 -x {3.0 0.0 -1 ------- null}
r -t 0.756616 -s 10 -d 0 -p ack -e 40 -c 0 -i 23 -a 0 -x {3.0 0.0 8 ------- null}
h -t 0.756616 -s 0 -d 10 -p tcp -e 1040 -c 0 -i 34 -a 0 -x {0.0 3.0 17 ------- null}
h -t 0.756616 -s 0 -d 10 -p tcp -e 1040 -c 0 -i 35 -a 0 -x {0.0 3.0 18 ------- null}
r -t 0.757224 -s 10 -d 0 -p ack -e 40 -c 0 -i 24 -a 0 -x {3.0 0.0 9 ------- null}
h -t 0.757224 -s 0 -d 10 -p tcp -e 1040 -c 0 -i 36 -a 0 -x {0.0 3.0 19 ------- null}
h -t 0.757224 -s 0 -d 10 -p tcp -e 1040 -c 0 -i 37 -a 0 -x {0.0 3.0 20 ------- null}
r -t 0.757832 -s 10 -d 0 -p ack -e 40 -c 0 -i 25 -a 0 -x {3.0 0.0 10 ------- null}
h -t 0.757832 -s 0 -d 10 -p tcp -e 1040 -c 0 -i 38 -a 0 -x {0.0 3.0 21 ------- null}
h -t 0.757832 -s 0 -d 10 -p tcp -e 1040 -c 0 -i 39 -a 0 -x {0.0 3.0 22 ------- null}
r -t 0.758439999999999 -s 10 -d 0 -p ack -e 40 -c 0 -i 28 -a 0 -x {3.0 0.0 11 ------- null}
h -t 0.758439999999999 -s 0 -d 10 -p tcp -e 1040 -c 0 -i 40 -a 0 -x {0.0 3.0 23 ------- null}
h -t 0.758439999999999 -s 0 -d 10 -p tcp -e 1040 -c 0 -i 41 -a 0 -x {0.0 3.0 24 ------- null}
r -t 0.759047999999999 -s 10 -d 0 -p ack -e 40 -c 0 -i 29 -a 0 -x {3.0 0.0 12 ------- null}
h -t 0.759047999999999 -s 0 -d 10 -p tcp -e 1040 -c 0 -i 42 -a 0 -x {0.0 3.0 25 ------- null}
h -t 0.759047999999999 -s 0 -d 10 -p tcp -e 1040 -c 0 -i 43 -a 0 -x {0.0 3.0 26 ------- null}
r -t 0.759655999999999 -s 10 -d 0 -p ack -e 40 -c 0 -i 30 -a 0 -x {3.0 0.0 13 ------- null}
h -t 0.759655999999999 -s 0 -d 10 -p tcp -e 1040 -c 0 -i 44 -a 0 -x {0.0 3.0 27 ------- null}
h -t 0.759655999999999 -s 0 -d 10 -p tcp -e 1040 -c 0 -i 45 -a 0 -x {0.0 3.0 28 ------- null}
r -t 0.760263999999999 -s 10 -d 0 -p ack -e 40 -c 0 -i 31 -a 0 -x {3.0 0.0 14 ------- null}
h -t 0.760263999999999 -s 0 -d 10 -p tcp -e 1040 -c 0 -i 46 -a 0 -x {0.0 3.0 29 ------- null}
h -t 0.760263999999999 -s 0 -d 10 -p tcp -e 1040 -c 0 -i 47 -a 0 -x {0.0 3.0 30 ------- null}
+ -t 0.762252 -s 3 -d 10 -p ack -e 40 -c 0 -i 33 -a 0 -x {3.0 0.0 16 ------- null}
- -t 0.762252 -s 3 -d 10 -p ack -e 40 -c 0 -i 33 -a 0 -x {3.0 0.0 16 ------- null}
h -t 0.762252 -s 3 -d 10 -p ack -e 40 -c 0 -i 33 -a 0 -x {3.0 0.0 -1 ------- null}
r -t 0.764104 -s 10 -d 0 -p ack -e 40 -c 0 -i 32 -a 0 -x {3.0 0.0 15 ------- null}
h -t 0.764104 -s 0 -d 10 -p tcp -e 1040 -c 0 -i 48 -a 0 -x {0.0 3.0 31 ------- null}
h -t 0.764104 -s 0 -d 10 -p tcp -e 1040 -c 0 -i 49 -a 0 -x {0.0 3.0 32 ------- null}
+ -t 0.766616 -s 0 -d 10 -p tcp -e 1040 -c 0 -i 34 -a 0 -x {0.0 3.0 17 ------- null}
- -t 0.766616 -s 0 -d 10 -p tcp -e 1040 -c 0 -i 34 -a 0 -x {0.0 3.0 17 ------- null}
h -t 0.766616 -s 0 -d 10 -p tcp -e 1040 -c 0 -i 34 -a 0 -x {0.0 3.0 -1 ------- null}
+ -t 0.766616 -s 0 -d 10 -p tcp -e 1040 -c 0 -i 35 -a 0 -x {0.0 3.0 18 ------- null}
+ -t 0.767224 -s 0 -d 10 -p tcp -e 1040 -c 0 -i 36 -a 0 -x {0.0 3.0 19 ------- null}
+ -t 0.767224 -s 0 -d 10 -p tcp -e 1040 -c 0 -i 37 -a 0 -x {0.0 3.0 20 ------- null}
+ -t 0.767832 -s 0 -d 10 -p tcp -e 1040 -c 0 -i 38 -a 0 -x {0.0 3.0 21 ------- null}
+ -t 0.767832 -s 0 -d 10 -p tcp -e 1040 -c 0 -i 39 -a 0 -x {0.0 3.0 22 ------- null}
+ -t 0.768439999999999 -s 0 -d 10 -p tcp -e 1040 -c 0 -i 40 -a 0 -x {0.0 3.0 23 ------- null}
+ -t 0.768439999999999 -s 0 -d 10 -p tcp -e 1040 -c 0 -i 41 -a 0 -x {0.0 3.0 24 ------- null}
+ -t 0.769047999999999 -s 0 -d 10 -p tcp -e 1040 -c 0 -i 42 -a 0 -x {0.0 3.0 25 ------- null}
+ -t 0.769047999999999 -s 0 -d 10 -p tcp -e 1040 -c 0 -i 43 -a 0 -x {0.0 3.0 26 ------- null}
+ -t 0.769655999999999 -s 0 -d 10 -p tcp -e 1040 -c 0 -i 44 -a 0 -x {0.0 3.0 27 ------- null}
+ -t 0.769655999999999 -s 0 -d 10 -p tcp -e 1040 -c 0 -i 45 -a 0 -x {0.0 3.0 28 ------- null}
+ -t 0.770263999999999 -s 0 -d 10 -p tcp -e 1040 -c 0 -i 46 -a 0 -x {0.0 3.0 29 ------- null}
+ -t 0.770263999999999 -s 0 -d 10 -p tcp -e 1040 -c 0 -i 47 -a 0 -x {0.0 3.0 30 ------- null}
r -t 0.772768 -s 10 -d 0 -p ack -e 40 -c 0 -i 33 -a 0 -x {3.0 0.0 16 ------- null}
h -t 0.772768 -s 0 -d 10 -p tcp -e 1040 -c 0 -i 50 -a 0 -x {0.0 3.0 33 ------- null}
h -t 0.772768 -s 0 -d 10 -p tcp -e 1040 -c 0 -i 51 -a 0 -x {0.0 3.0 34 ------- null}
+ -t 0.774104 -s 0 -d 10 -p tcp -e 1040 -c 0 -i 48 -a 0 -x {0.0 3.0 31 ------- null}
+ -t 0.774104 -s 0 -d 10 -p tcp -e 1040 -c 0 -i 49 -a 0 -x {0.0 3.0 32 ------- null}
- -t 0.775144 -s 0 -d 10 -p tcp -e 1040 -c 0 -i 35 -a 0 -x {0.0 3.0 18 ------- null}
h -t 0.775144 -s 0 -d 10 -p tcp -e 1040 -c 0 -i 35 -a 0 -x {0.0 3.0 -1 ------- null}
+ -t 0.782768 -s 0 -d 10 -p tcp -e 1040 -c 0 -i 50 -a 0 -x {0.0 3.0 33 ------- null}
+ -t 0.782768 -s 0 -d 10 -p tcp -e 1040 -c 0 -i 51 -a 0 -x {0.0 3.0 34 ------- null}
- -t 0.783672 -s 0 -d 10 -p tcp -e 1040 -c 0 -i 36 -a 0 -x {0.0 3.0 19 ------- null}
h -t 0.783672 -s 0 -d 10 -p tcp -e 1040 -c 0 -i 36 -a 0 -x {0.0 3.0 -1 ------- null}
r -t 0.785052 -s 10 -d 3 -p tcp -e 1040 -c 0 -i 34 -a 0 -x {0.0 3.0 17 ------- null}
h -t 0.785052 -s 3 -d 10 -p ack -e 40 -c 0 -i 52 -a 0 -x {3.0 0.0 17 ------- null}
- -t 0.7922 -s 0 -d 10 -p tcp -e 1040 -c 0 -i 37 -a 0 -x {0.0 3.0 20 ------- null}
h -t 0.7922 -s 0 -d 10 -p tcp -e 1040 -c 0 -i 37 -a 0 -x {0.0 3.0 -1 ------- null}
r -t 0.79358 -s 10 -d 3 -p tcp -e 1040 -c 0 -i 35 -a 0 -x {0.0 3.0 18 ------- null}
h -t 0.79358 -s 3 -d 10 -p ack -e 40 -c 0 -i 53 -a 0 -x {3.0 0.0 18 ------- null}
+ -t 0.795052 -s 3 -d 10 -p ack -e 40 -c 0 -i 52 -a 0 -x {3.0 0.0 17 ------- null}
- -t 0.795052 -s 3 -d 10 -p ack -e 40 -c 0 -i 52 -a 0 -x {3.0 0.0 17 ------- null}
h -t 0.795052 -s 3 -d 10 -p ack -e 40 -c 0 -i 52 -a 0 -x {3.0 0.0 -1 ------- null}
- -t 0.800728 -s 0 -d 10 -p tcp -e 1040 -c 0 -i 38 -a 0 -x {0.0 3.0 21 ------- null}
h -t 0.800728 -s 0 -d 10 -p tcp -e 1040 -c 0 -i 38 -a 0 -x {0.0 3.0 -1 ------- null}
r -t 0.802108 -s 10 -d 3 -p tcp -e 1040 -c 0 -i 36 -a 0 -x {0.0 3.0 19 ------- null}
h -t 0.802108 -s 3 -d 10 -p ack -e 40 -c 0 -i 54 -a 0 -x {3.0 0.0 19 ------- null}
+ -t 0.80358 -s 3 -d 10 -p ack -e 40 -c 0 -i 53 -a 0 -x {3.0 0.0 18 ------- null}
- -t 0.809392 -s 0 -d 10 -p tcp -e 1040 -c 0 -i 39 -a 0 -x {0.0 3.0 22 ------- null}
h -t 0.809392 -s 0 -d 10 -p tcp -e 1040 -c 0 -i 39 -a 0 -x {0.0 3.0 -1 ------- null}
r -t 0.810636 -s 10 -d 3 -p tcp -e 1040 -c 0 -i 37 -a 0 -x {0.0 3.0 20 ------- null}
h -t 0.810636 -s 3 -d 10 -p ack -e 40 -c 0 -i 55 -a 0 -x {3.0 0.0 20 ------- null}
+ -t 0.812108 -s 3 -d 10 -p ack -e 40 -c 0 -i 54 -a 0 -x {3.0 0.0 19 ------- null}
- -t 0.818568 -s 0 -d 10 -p tcp -e 1040 -c 0 -i 40 -a 0 -x {0.0 3.0 23 ------- null}
h -t 0.818568 -s 0 -d 10 -p tcp -e 1040 -c 0 -i 40 -a 0 -x {0.0 3.0 -1 ------- null}
r -t 0.8193 -s 10 -d 3 -p tcp -e 1040 -c 0 -i 38 -a 0 -x {0.0 3.0 21 ------- null}
h -t 0.8193 -s 3 -d 10 -p ack -e 40 -c 0 -i 56 -a 0 -x {3.0 0.0 21 ------- null}
- -t 0.819955999999999 -s 3 -d 10 -p ack -e 40 -c 0 -i 53 -a 0 -x {3.0 0.0 18 ------- null}
h -t 0.819955999999999 -s 3 -d 10 -p ack -e 40 -c 0 -i 53 -a 0 -x {3.0 0.0 -1 ------- null}
+ -t 0.820636 -s 3 -d 10 -p ack -e 40 -c 0 -i 55 -a 0 -x {3.0 0.0 20 ------- null}
- -t 0.820699999999999 -s 3 -d 10 -p ack -e 40 -c 0 -i 54 -a 0 -x {3.0 0.0 19 ------- null}
h -t 0.820699999999999 -s 3 -d 10 -p ack -e 40 -c 0 -i 54 -a 0 -x {3.0 0.0 -1 ------- null}
- -t 0.821955999999999 -s 3 -d 10 -p ack -e 40 -c 0 -i 55 -a 0 -x {3.0 0.0 20 ------- null}
h -t 0.821955999999999 -s 3 -d 10 -p ack -e 40 -c 0 -i 55 -a 0 -x {3.0 0.0 -1 ------- null}
r -t 0.828476 -s 10 -d 3 -p tcp -e 1040 -c 0 -i 39 -a 0 -x {0.0 3.0 22 ------- null}
h -t 0.828476 -s 3 -d 10 -p ack -e 40 -c 0 -i 57 -a 0 -x {3.0 0.0 22 ------- null}
+ -t 0.8293 -s 3 -d 10 -p ack -e 40 -c 0 -i 56 -a 0 -x {3.0 0.0 21 ------- null}
- -t 0.8293 -s 3 -d 10 -p ack -e 40 -c 0 -i 56 -a 0 -x {3.0 0.0 21 ------- null}
h -t 0.8293 -s 3 -d 10 -p ack -e 40 -c 0 -i 56 -a 0 -x {3.0 0.0 -1 ------- null}
r -t 0.829863999999999 -s 10 -d 0 -p ack -e 40 -c 0 -i 52 -a 0 -x {3.0 0.0 17 ------- null}
h -t 0.829863999999999 -s 0 -d 10 -p tcp -e 1040 -c 0 -i 58 -a 0 -x {0.0 3.0 35 ------- null}
h -t 0.829863999999999 -s 0 -d 10 -p tcp -e 1040 -c 0 -i 59 -a 0 -x {0.0 3.0 36 ------- null}
r -t 0.830607999999999 -s 10 -d 0 -p ack -e 40 -c 0 -i 53 -a 0 -x {3.0 0.0 18 ------- null}
h -t 0.830607999999999 -s 0 -d 10 -p tcp -e 1040 -c 0 -i 60 -a 0 -x {0.0 3.0 37 ------- null}
h -t 0.830607999999999 -s 0 -d 10 -p tcp -e 1040 -c 0 -i 61 -a 0 -x {0.0 3.0 38 ------- null}
r -t 0.831863999999999 -s 10 -d 0 -p ack -e 40 -c 0 -i 54 -a 0 -x {3.0 0.0 19 ------- null}
h -t 0.831863999999999 -s 0 -d 10 -p tcp -e 1040 -c 0 -i 62 -a 0 -x {0.0 3.0 39 ------- null}
r -t 0.832471999999999 -s 10 -d 0 -p ack -e 40 -c 0 -i 55 -a 0 -x {3.0 0.0 20 ------- null}
h -t 0.832471999999999 -s 0 -d 10 -p tcp -e 1040 -c 0 -i 63 -a 0 -x {0.0 3.0 40 ------- null}
- -t 0.836015999999999 -s 0 -d 10 -p tcp -e 1040 -c 0 -i 41 -a 0 -x {0.0 3.0 24 ------- null}
h -t 0.836015999999999 -s 0 -d 10 -p tcp -e 1040 -c 0 -i 41 -a 0 -x {0.0 3.0 -1 ------- null}
+ -t 0.838476 -s 3 -d 10 -p ack -e 40 -c 0 -i 57 -a 0 -x {3.0 0.0 22 ------- null}
- -t 0.838476 -s 3 -d 10 -p ack -e 40 -c 0 -i 57 -a 0 -x {3.0 0.0 22 ------- null}
h -t 0.838476 -s 3 -d 10 -p ack -e 40 -c 0 -i 57 -a 0 -x {3.0 0.0 -1 ------- null}
+ -t 0.839863999999999 -s 0 -d 10 -p tcp -e 1040 -c 0 -i 58 -a 0 -x {0.0 3.0 35 ------- null}
+ -t 0.839863999999999 -s 0 -d 10 -p tcp -e 1040 -c 0 -i 59 -a 0 -x {0.0 3.0 36 ------- null}
+ -t 0.840607999999999 -s 0 -d 10 -p tcp -e 1040 -c 0 -i 60 -a 0 -x {0.0 3.0 37 ------- null}
+ -t 0.840607999999999 -s 0 -d 10 -p tcp -e 1040 -c 0 -i 61 -a 0 -x {0.0 3.0 38 ------- null}
+ -t 0.841863999999999 -s 0 -d 10 -p tcp -e 1040 -c 0 -i 62 -a 0 -x {0.0 3.0 39 ------- null}
+ -t 0.842471999999999 -s 0 -d 10 -p tcp -e 1040 -c 0 -i 63 -a 0 -x {0.0 3.0 40 ------- null}
r -t 0.845923999999999 -s 10 -d 3 -p tcp -e 1040 -c 0 -i 40 -a 0 -x {0.0 3.0 23 ------- null}
h -t 0.845923999999999 -s 3 -d 10 -p ack -e 40 -c 0 -i 64 -a 0 -x {3.0 0.0 23 ------- null}
- -t 0.846343999999999 -s 0 -d 10 -p tcp -e 1040 -c 0 -i 42 -a 0 -x {0.0 3.0 25 ------- null}
h -t 0.846343999999999 -s 0 -d 10 -p tcp -e 1040 -c 0 -i 42 -a 0 -x {0.0 3.0 -1 ------- null}
r -t 0.847311999999999 -s 10 -d 0 -p ack -e 40 -c 0 -i 56 -a 0 -x {3.0 0.0 21 ------- null}
h -t 0.847311999999999 -s 0 -d 10 -p tcp -e 1040 -c 0 -i 65 -a 0 -x {0.0 3.0 41 ------- null}
+ -t 0.855923999999999 -s 3 -d 10 -p ack -e 40 -c 0 -i 64 -a 0 -x {3.0 0.0 23 ------- null}
- -t 0.855923999999999 -s 3 -d 10 -p ack -e 40 -c 0 -i 64 -a 0 -x {3.0 0.0 23 ------- null}
h -t 0.855923999999999 -s 3 -d 10 -p ack -e 40 -c 0 -i 64 -a 0 -x {3.0 0.0 -1 ------- null}
r -t 0.856251999999999 -s 10 -d 3 -p tcp -e 1040 -c 0 -i 41 -a 0 -x {0.0 3.0 24 ------- null}
h -t 0.856251999999999 -s 3 -d 10 -p ack -e 40 -c 0 -i 66 -a 0 -x {3.0 0.0 24 ------- null}
- -t 0.857183999999999 -s 0 -d 10 -p tcp -e 1040 -c 0 -i 43 -a 0 -x {0.0 3.0 26 ------- null}
h -t 0.857183999999999 -s 0 -d 10 -p tcp -e 1040 -c 0 -i 43 -a 0 -x {0.0 3.0 -1 ------- null}
+ -t 0.857311999999999 -s 0 -d 10 -p tcp -e 1040 -c 0 -i 65 -a 0 -x {0.0 3.0 41 ------- null}
r -t 0.858151999999999 -s 10 -d 0 -p ack -e 40 -c 0 -i 57 -a 0 -x {3.0 0.0 22 ------- null}
h -t 0.858151999999999 -s 0 -d 10 -p tcp -e 1040 -c 0 -i 67 -a 0 -x {0.0 3.0 42 ------- null}
+ -t 0.866251999999999 -s 3 -d 10 -p ack -e 40 -c 0 -i 66 -a 0 -x {3.0 0.0 24 ------- null}
- -t 0.866487999999999 -s 0 -d 10 -p tcp -e 1040 -c 0 -i 44 -a 0 -x {0.0 3.0 27 ------- null}
h -t 0.866487999999999 -s 0 -d 10 -p tcp -e 1040 -c 0 -i 44 -a 0 -x {0.0 3.0 -1 ------- null}
r -t 0.867091999999999 -s 10 -d 3 -p tcp -e 1040 -c 0 -i 42 -a 0 -x {0.0 3.0 25 ------- null}
h -t 0.867091999999999 -s 3 -d 10 -p ack -e 40 -c 0 -i 68 -a 0 -x {3.0 0.0 25 ------- null}
- -t 0.867227999999999 -s 3 -d 10 -p ack -e 40 -c 0 -i 66 -a 0 -x {3.0 0.0 24 ------- null}
h -t 0.867227999999999 -s 3 -d 10 -p ack -e 40 -c 0 -i 66 -a 0 -x {3.0 0.0 -1 ------- null}
+ -t 0.868151999999999 -s 0 -d 10 -p tcp -e 1040 -c 0 -i 67 -a 0 -x {0.0 3.0 42 ------- null}
r -t 0.876395999999999 -s 10 -d 3 -p tcp -e 1040 -c 0 -i 43 -a 0 -x {0.0 3.0 26 ------- null}
h -t 0.876395999999999 -s 3 -d 10 -p ack -e 40 -c 0 -i 69 -a 0 -x {3.0 0.0 26 ------- null}
+ -t 0.877091999999999 -s 3 -d 10 -p ack -e 40 -c 0 -i 68 -a 0 -x {3.0 0.0 25 ------- null}
- -t 0.877091999999999 -s 3 -d 10 -p ack -e 40 -c 0 -i 68 -a 0 -x {3.0 0.0 25 ------- null}
h -t 0.877091999999999 -s 3 -d 10 -p ack -e 40 -c 0 -i 68 -a 0 -x {3.0 0.0 -1 ------- null}
r -t 0.877135999999999 -s 10 -d 0 -p ack -e 40 -c 0 -i 64 -a 0 -x {3.0 0.0 23 ------- null}
h -t 0.877135999999999 -s 0 -d 10 -p tcp -e 1040 -c 0 -i 70 -a 0 -x {0.0 3.0 43 ------- null}
r -t 0.879543999999999 -s 10 -d 0 -p ack -e 40 -c 0 -i 66 -a 0 -x {3.0 0.0 24 ------- null}
h -t 0.879543999999999 -s 0 -d 10 -p tcp -e 1040 -c 0 -i 71 -a 0 -x {0.0 3.0 44 ------- null}
- -t 0.880119999999999 -s 0 -d 10 -p tcp -e 1040 -c 0 -i 45 -a 0 -x {0.0 3.0 28 ------- null}
h -t 0.880119999999999 -s 0 -d 10 -p tcp -e 1040 -c 0 -i 45 -a 0 -x {0.0 3.0 -1 ------- null}
+ -t 0.886395999999999 -s 3 -d 10 -p ack -e 40 -c 0 -i 69 -a 0 -x {3.0 0.0 26 ------- null}
+ -t 0.887135999999999 -s 0 -d 10 -p tcp -e 1040 -c 0 -i 70 -a 0 -x {0.0 3.0 43 ------- null}
+ -t 0.889543999999999 -s 0 -d 10 -p tcp -e 1040 -c 0 -i 71 -a 0 -x {0.0 3.0 44 ------- null}
r -t 0.890027999999999 -s 10 -d 3 -p tcp -e 1040 -c 0 -i 44 -a 0 -x {0.0 3.0 27 ------- null}
h -t 0.890027999999999 -s 3 -d 10 -p ack -e 40 -c 0 -i 72 -a 0 -x {3.0 0.0 27 ------- null}
- -t 0.891607999999999 -s 0 -d 10 -p tcp -e 1040 -c 0 -i 46 -a 0 -x {0.0 3.0 29 ------- null}
h -t 0.891607999999999 -s 0 -d 10 -p tcp -e 1040 -c 0 -i 46 -a 0 -x {0.0 3.0 -1 ------- null}
- -t 0.894019999999999 -s 3 -d 10 -p ack -e 40 -c 0 -i 69 -a 0 -x {3.0 0.0 26 ------- null}
h -t 0.894019999999999 -s 3 -d 10 -p ack -e 40 -c 0 -i 69 -a 0 -x {3.0 0.0 -1 ------- null}
+ -t 0.900027999999999 -s 3 -d 10 -p ack -e 40 -c 0 -i 72 -a 0 -x {3.0 0.0 27 ------- null}
- -t 0.900027999999999 -s 3 -d 10 -p ack -e 40 -c 0 -i 72 -a 0 -x {3.0 0.0 27 ------- null}
h -t 0.900027999999999 -s 3 -d 10 -p ack -e 40 -c 0 -i 72 -a 0 -x {3.0 0.0 -1 ------- null}
r -t 0.901515999999999 -s 10 -d 3 -p tcp -e 1040 -c 0 -i 45 -a 0 -x {0.0 3.0 28 ------- null}
h -t 0.901515999999999 -s 3 -d 10 -p ack -e 40 -c 0 -i 73 -a 0 -x {3.0 0.0 28 ------- null}
r -t 0.903927999999999 -s 10 -d 0 -p ack -e 40 -c 0 -i 68 -a 0 -x {3.0 0.0 25 ------- null}
h -t 0.903927999999999 -s 0 -d 10 -p tcp -e 1040 -c 0 -i 74 -a 0 -x {0.0 3.0 45 ------- null}
r -t 0.905183999999999 -s 10 -d 0 -p ack -e 40 -c 0 -i 69 -a 0 -x {3.0 0.0 26 ------- null}
h -t 0.905183999999999 -s 0 -d 10 -p tcp -e 1040 -c 0 -i 75 -a 0 -x {0.0 3.0 46 ------- null}
- -t 0.905751999999999 -s 0 -d 10 -p tcp -e 1040 -c 0 -i 47 -a 0 -x {0.0 3.0 30 ------- null}
h -t 0.905751999999999 -s 0 -d 10 -p tcp -e 1040 -c 0 -i 47 -a 0 -x {0.0 3.0 -1 ------- null}
+ -t 0.911515999999999 -s 3 -d 10 -p ack -e 40 -c 0 -i 73 -a 0 -x {3.0 0.0 28 ------- null}
+ -t 0.913927999999999 -s 0 -d 10 -p tcp -e 1040 -c 0 -i 74 -a 0 -x {0.0 3.0 45 ------- null}
- -t 0.915055999999999 -s 0 -d 10 -p tcp -e 1040 -c 0 -i 48 -a 0 -x {0.0 3.0 31 ------- null}
h -t 0.915055999999999 -s 0 -d 10 -p tcp -e 1040 -c 0 -i 48 -a 0 -x {0.0 3.0 -1 ------- null}
+ -t 0.915183999999999 -s 0 -d 10 -p tcp -e 1040 -c 0 -i 75 -a 0 -x {0.0 3.0 46 ------- null}
r -t 0.915659999999999 -s 10 -d 3 -p tcp -e 1040 -c 0 -i 46 -a 0 -x {0.0 3.0 29 ------- null}
h -t 0.915659999999999 -s 3 -d 10 -p ack -e 40 -c 0 -i 76 -a 0 -x {3.0 0.0 29 ------- null}
- -t 0.923719999999999 -s 0 -d 10 -p tcp -e 1040 -c 0 -i 49 -a 0 -x {0.0 3.0 32 ------- null}
h -t 0.923719999999999 -s 0 -d 10 -p tcp -e 1040 -c 0 -i 49 -a 0 -x {0.0 3.0 -1 ------- null}
r -t 0.924963999999999 -s 10 -d 3 -p tcp -e 1040 -c 0 -i 47 -a 0 -x {0.0 3.0 30 ------- null}
h -t 0.924963999999999 -s 3 -d 10 -p ack -e 40 -c 0 -i 77 -a 0 -x {3.0 0.0 30 ------- null}
+ -t 0.925659999999999 -s 3 -d 10 -p ack -e 40 -c 0 -i 76 -a 0 -x {3.0 0.0 29 ------- null}