V -t * -v 1.0a5 -a 0
A -t * -n 1 -p 0 -o 0x7fffffff -c 30 -a 1
A -t * -h 1 -m 1073741823 -s 0
n -t * -a 8 -s 8 -S UP -v circle -c black -i black
n -t * -a 4 -s 4 -S UP -v circle -c black -i black
n -t * -a 0 -s 0 -S UP -v circle -c black -i black
n -t * -a 9 -s 9 -S UP -v circle -c black -i black
n -t * -a 5 -s 5 -S UP -v circle -c black -i black
n -t * -a 1 -s 1 -S UP -v circle -c black -i black
n -t * -a 6 -s 6 -S UP -v circle -c black -i black
n -t * -a 2 -s 2 -S UP -v circle -c black -i black
n -t * -a 7 -s 7 -S UP -v circle -c black -i black
n -t * -a 3 -s 3 -S UP -v circle -c black -i black
X -t * -n 10 -r 1Mb -D 10ms -o left
L -t * -s 10 -d 0 -o up
L -t * -s 10 -d 1 -o down
L -t * -s 10 -d 2 -o up
L -t * -s 10 -d 3 -o down
L -t * -s 10 -d 4 -o up
L -t * -s 10 -d 5 -o down
L -t * -s 10 -d 6 -o up
L -t * -s 10 -d 7 -o down
L -t * -s 10 -d 8 -o up
L -t * -s 10 -d 9 -o down
h -t 0.504091586621143 -s 1 -d 10 -p tcp -e 40 -c 0 -i 0 -a 0 -x {1.0 3.1 0 ------- null}
+ -t 0.514091586621143 -s 1 -d 10 -p tcp -e 40 -c 0 -i 0 -a 0 -x {1.0 3.1 0 ------- null}
- -t 0.514091586621143 -s 1 -d 10 -p tcp -e 40 -c 0 -i 0 -a 0 -x {1.0 3.1 0 ------- null}
h -t 0.514091586621143 -s 1 -d 10 -p tcp -e 40 -c 0 -i 0 -a 0 -x {1.0 3.1 -1 ------- null}
r -t 0.524607586621142 -s 10 -d 3 -p tcp -e 40 -c 0 -i 0 -a 0 -x {1.0 3.1 0 ------- null}
h -t 0.524607586621142 -s 3 -d 10 -p ack -e 40 -c 0 -i 1 -a 0 -x {3.1 1.0 0 ------- null}
+ -t 0.534607586621142 -s 3 -d 10 -p ack -e 40 -c 0 -i 1 -a 0 -x {3.1 1.0 0 ------- null}
- -t 0.534607586621142 -s 3 -d 10 -p ack -e 40 -c 0 -i 1 -a 0 -x {3.1 1.0 0 ------- null}
h -t 0.534607586621142 -s 3 -d 10 -p ack -e 40 -c 0 -i 1 -a 0 -x {3.1 1.0 -1 ------- null}
r -t 0.545123586621142 -s 10 -d 1 -p ack -e 40 -c 0 -i 1 -a 0 -x {3.1 1.0 0 ------- null}
h -t 0.545123586621142 -s 1 -d 10 -p tcp -e 1040 -c 0 -i 2 -a 0 -x {1.0 3.1 1 ------- null}
h -t 0.545123586621142 -s 1 -d 10 -p tcp -e 1040 -c 0 -i 3 -a 0 -x {1.0 3.1 2 ------- null}
+ -t 0.555123586621142 -s 1 -d 10 -p tcp -e 1040 -c 0 -i 2 -a 0 -x {1.0 3.1 1 ------- null}
- -t 0.555123586621142 -s 1 -d 10 -p tcp -e 1040 -c 0 -i 2 -a 0 -x {1.0 3.1 1 ------- null}
h -t 0.555123586621142 -s 1 -d 10 -p tcp -e 1040 -c 0 -i 2 -a 0 -x {1.0 3.1 -1 ------- null}
+ -t 0.555123586621142 -s 1 -d 10 -p tcp -e 1040 -c 0 -i 3 -a 0 -x {1.0 3.1 2 ------- null}
- -t 0.563651586621142 -s 1 -d 10 -p tcp -e 1040 -c 0 -i 3 -a 0 -x {1.0 3.1 2 ------- null}
h -t 0.563651586621142 -s 1 -d 10 -p tcp -e 1040 -c 0 -i 3 -a 0 -x {1.0 3.1 -1 ------- null}
r -t 0.573559586621142 -s 10 -d 3 -p tcp -e 1040 -c 0 -i 2 -a 0 -x {1.0 3.1 1 ------- null}
h -t 0.573559586621142 -s 3 -d 10 -p ack -e 40 -c 0 -i 4 -a 0 -x {3.1 1.0 1 ------- null}
r -t 0.582087586621142 -s 10 -d 3 -p tcp -e 1040 -c 0 -i 3 -a 0 -x {1.0 3.1 2 ------- null}
h -t 0.582087586621142 -s 3 -d 10 -p ack -e 40 -c 0 -i 5 -a 0 -x {3.1 1.0 2 ------- null}
+ -t 0.583559586621142 -s 3 -d 10 -p ack -e 40 -c 0 -i 4 -a 0 -x {3.1 1.0 1 ------- null}
- -t 0.583559586621142 -s 3 -d 10 -p ack -e 40 -c 0 -i 4 -a 0 -x {3.1 1.0 1 ------- null}
h -t 0.583559586621142 -s 3 -d 10 -p ack -e 40 -c 0 -i 4 -a 0 -x {3.1 1.0 -1 ------- null}
+ -t 0.592087586621142 -s 3 -d 10 -p ack -e 40 -c 0 -i 5 -a 0 -x {3.1 1.0 2 ------- null}
- -t 0.592087586621142 -s 3 -d 10 -p ack -e 40 -c 0 -i 5 -a 0 -x {3.1 1.0 2 ------- null}
h -t 0.592087586621142 -s 3 -d 10 -p ack -e 40 -c 0 -i 5 -a 0 -x {3.1 1.0 -1 ------- null}
r -t 0.594075586621142 -s 10 -d 1 -p ack -e 40 -c 0 -i 4 -a 0 -x {3.1 1.0 1 ------- null}
h -t 0.594075586621142 -s 1 -d 10 -p tcp -e 1040 -c 0 -i 6 -a 0 -x {1.0 3.1 3 ------- null}
h -t 0.594075586621142 -s 1 -d 10 -p tcp -e 1040 -c 0 -i 7 -a 0 -x {1.0 3.1 4 ------- null}
r -t 0.602603586621142 -s 10 -d 1 -p ack -e 40 -c 0 -i 5 -a 0 -x {3.1 1.0 2 ------- null}
h -t 0.602603586621142 -s 1 -d 10 -p tcp -e 1040 -c 0 -i 8 -a 0 -x {1.0 3.1 5 ------- null}
h -t 0.602603586621142 -s 1 -d 10 -p tcp -e 1040 -c 0 -i 9 -a 0 -x {1.0 3.1 6 ------- null}
+ -t 0.604075586621142 -s 1 -d 10 -p tcp -e 1040 -c 0 -i 6 -a 0 -x {1.0 3.1 3 ------- null}
- -t 0.604075586621142 -s 1 -d 10 -p tcp -e 1040 -c 0 -i 6 -a 0 -x {1.0 3.1 3 ------- null}
h -t 0.604075586621142 -s 1 -d 10 -p tcp -e 1040 -c 0 -i 6 -a 0 -x {1.0 3.1 -1 ------- null}
+ -t 0.604075586621142 -s 1 -d 10 -p tcp -e 1040 -c 0 -i 7 -a 0 -x {1.0 3.1 4 ------- null}
+ -t 0.612603586621142 -s 1 -d 10 -p tcp -e 1040 -c 0 -i 8 -a 0 -x {1.0 3.1 5 ------- null}
+ -t 0.612603586621142 -s 1 -d 10 -p tcp -e 1040 -c 0 -i 9 -a 0 -x {1.0 3.1 6 ------- null}
- -t 0.612603586621142 -s 1 -d 10 -p tcp -e 1040 -c 0 -i 7 -a 0 -x {1.0 3.1 4 ------- null}
h -t 0.612603586621142 -s 1 -d 10 -p tcp -e 1040 -c 0 -i 7 -a 0 -x {1.0 3.1 -1 ------- null}
- -t 0.621131586621142 -s 1 -d 10 -p tcp -e 1040 -c 0 -i 8 -a 0 -x {1.0 3.1 5 ------- null}
h -t 0.621131586621142 -s 1 -d 10 -p tcp -e 1040 -c 0 -i 8 -a 0 -x {1.0 3.1 -1 ------- null}
r -t 0.622511586621142 -s 10 -d 3 -p tcp -e 1040 -c 0 -i 6 -a 0 -x {1.0 3.1 3 ------- null}
h -t 0.622511586621142 -s 3 -d 10 -p ack -e 40 -c 0 -i 10 -a 0 -x {3.1 1.0 3 ------- null}
- -t 0.629659586621142 -s 1 -d 10 -p tcp -e 1040 -c 0 -i 9 -a 0 -x {1.0 3.1 6 ------- null}
h -t 0.629659586621142 -s 1 -d 10 -p tcp -e 1040 -c 0 -i 9 -a 0 -x {1.0 3.1 -1 ------- null}
r -t 0.631039586621142 -s 10 -d 3 -p tcp -e 1040 -c 0 -i 7 -a 0 -x {1.0 3.1 4 ------- null}
h -t 0.631039586621142 -s 3 -d 10 -p ack -e 40 -c 0 -i 11 -a 0 -x {3.1 1.0 4 ------- null}
+ -t 0.632511586621142 -s 3 -d 10 -p ack -e 40 -c 0 -i 10 -a 0 -x {3.1 1.0 3 ------- null}
- -t 0.632511586621142 -s 3 -d 10 -p ack -e 40 -c 0 -i 10 -a 0 -x {3.1 1.0 3 ------- null}
h -t 0.632511586621142 -s 3 -d 10 -p ack -e 40 -c 0 -i 10 -a 0 -x {3.1 1.0 -1 ------- null}
r -t 0.639567586621142 -s 10 -d 3 -p tcp -e 1040 -c 0 -i 8 -a 0 -x {1.0 3.1 5 ------- null}
h -t 0.639567586621142 -s 3 -d 10 -p ack -e 40 -c 0 -i 12 -a 0 -x {3.1 1.0 5 ------- null}
+ -t 0.641039586621142 -s 3 -d 10 -p ack -e 40 -c 0 -i 11 -a 0 -x {3.1 1.0 4 ------- null}
- -t 0.641039586621142 -s 3 -d 10 -p ack -e 40 -c 0 -i 11 -a 0 -x {3.1 1.0 4 ------- null}
h -t 0.641039586621142 -s 3 -d 10 -p ack -e 40 -c 0 -i 11 -a 0 -x {3.1 1.0 -1 ------- null}
r -t 0.648095586621142 -s 10 -d 3 -p tcp -e 1040 -c 0 -i 9 -a 0 -x {1.0 3.1 6 ------- null}
h -t 0.648095586621142 -s 3 -d 10 -p ack -e 40 -c 0 -i 13 -a 0 -x {3.1 1.0 6 ------- null}
r -t 0.648707586621142 -s 10 -d 1 -p ack -e 40 -c 0 -i 10 -a 0 -x {3.1 1.0 3 ------- null}
h -t 0.648707586621142 -s 1 -d 10 -p tcp -e 1040 -c 0 -i 14 -a 0 -x {1.0 3.1 7 ------- null}
h -t 0.648707586621142 -s 1 -d 10 -p tcp -e 1040 -c 0 -i 15 -a 0 -x {1.0 3.1 8 ------- null}
+ -t 0.649567586621142 -s 3 -d 10 -p ack -e 40 -c 0 -i 12 -a 0 -x {3.1 1.0 5 ------- null}
- -t 0.649567586621142 -s 3 -d 10 -p ack -e 40 -c 0 -i 12 -a 0 -x {3.1 1.0 5 ------- null}
h -t 0.649567586621142 -s 3 -d 10 -p ack -e 40 -c 0 -i 12 -a 0 -x {3.1 1.0 -1 ------- null}
r -t 0.651555586621142 -s 10 -d 1 -p ack -e 40 -c 0 -i 11 -a 0 -x {3.1 1.0 4 ------- null}
h -t 0.651555586621142 -s 1 -d 10 -p tcp -e 1040 -c 0 -i 16 -a 0 -x {1.0 3.1 9 ------- null}
h -t 0.651555586621142 -s 1 -d 10 -p tcp -e 1040 -c 0 -i 17 -a 0 -x {1.0 3.1 10 ------- null}
+ -t 0.658095586621142 -s 3 -d 10 -p ack -e 40 -c 0 -i 13 -a 0 -x {3.1 1.0 6 ------- null}
- -t 0.658095586621142 -s 3 -d 10 -p ack -e 40 -c 0 -i 13 -a 0 -x {3.1 1.0 6 ------- null}
h -t 0.658095586621142 -s 3 -d 10 -p ack -e 40 -c 0 -i 13 -a 0 -x {3.1 1.0 -1 ------- null}
+ -t 0.658707586621142 -s 1 -d 10 -p tcp -e 1040 -c 0 -i 14 -a 0 -x {1.0 3.1 7 ------- null}
- -t 0.658707586621142 -s 1 -d 10 -p tcp -e 1040 -c 0 -i 14 -a 0 -x {1.0 3.1 7 ------- null}
h -t 0.658707586621142 -s 1 -d 10 -p tcp -e 1040 -c 0 -i 14 -a 0 -x {1.0 3.1 -1 ------- null}
+ -t 0.658707586621142 -s 1 -d 10 -p tcp -e 1040 -c 0 -i 15 -a 0 -x {1.0 3.1 8 ------- null}
r -t 0.660083586621142 -s 10 -d 1 -p ack -e 40 -c 0 -i 12 -a 0 -x {3.1 1.0 5 ------- null}
h -t 0.660083586621142 -s 1 -d 10 -p tcp -e 1040 -c 0 -i 18 -a 0 -x {1.0 3.1 11 ------- null}
h -t 0.660083586621142 -s 1 -d 10 -p tcp -e 1040 -c 0 -i 19 -a 0 -x {1.0 3.1 12 ------- null}
+ -t 0.661555586621142 -s 1 -d 10 -p tcp -e 1040 -c 0 -i 16 -a 0 -x {1.0 3.1 9 ------- null}
+ -t 0.661555586621142 -s 1 -d 10 -p tcp -e 1040 -c 0 -i 17 -a 0 -x {1.0 3.1 10 ------- null}
- -t 0.667235586621142 -s 1 -d 10 -p tcp -e 1040 -c 0 -i 15 -a 0 -x {1.0 3.1 8 ------- null}
h -t 0.667235586621142 -s 1 -d 10 -p tcp -e 1040 -c 0 -i 15 -a 0 -x {1.0 3.1 -1 ------- null}
r -t 0.668611586621142 -s 10 -d 1 -p ack -e 40 -c 0 -i 13 -a 0 -x {3.1 1.0 6 ------- null}
h -t 0.668611586621142 -s 1 -d 10 -p tcp -e 1040 -c 0 -i 20 -a 0 -x {1.0 3.1 13 ------- null}
h -t 0.668611586621142 -s 1 -d 10 -p tcp -e 1040 -c 0 -i 21 -a 0 -x {1.0 3.1 14 ------- null}
+ -t 0.670083586621142 -s 1 -d 10 -p tcp -e 1040 -c 0 -i 18 -a 0 -x {1.0 3.1 11 ------- null}
+ -t 0.670083586621142 -s 1 -d 10 -p tcp -e 1040 -c 0 -i 19 -a 0 -x {1.0 3.1 12 ------- null}
- -t 0.675763586621142 -s 1 -d 10 -p tcp -e 1040 -c 0 -i 16 -a 0 -x {1.0 3.1 9 ------- null}
h -t 0.675763586621142 -s 1 -d 10 -p tcp -e 1040 -c 0 -i 16 -a 0 -x {1.0 3.1 -1 ------- null}
r -t 0.677143586621142 -s 10 -d 3 -p tcp -e 1040 -c 0 -i 14 -a 0 -x {1.0 3.1 7 ------- null}
h -t 0.677143586621142 -s 3 -d 10 -p ack -e 40 -c 0 -i 22 -a 0 -x {3.1 1.0 7 ------- null}
+ -t 0.678611586621142 -s 1 -d 10 -p tcp -e 1040 -c 0 -i 20 -a 0 -x {1.0 3.1 13 ------- null}
+ -t 0.678611586621142 -s 1 -d 10 -p tcp -e 1040 -c 0 -i 21 -a 0 -x {1.0 3.1 14 ------- null}
- -t 0.684291586621142 -s 1 -d 10 -p tcp -e 1040 -c 0 -i 17 -a 0 -x {1.0 3.1 10 ------- null}
h -t 0.684291586621142 -s 1 -d 10 -p tcp -e 1040 -c 0 -i 17 -a 0 -x {1.0 3.1 -1 ------- null}
r -t 0.685671586621142 -s 10 -d 3 -p tcp -e 1040 -c 0 -i 15 -a 0 -x {1.0 3.1 8 ------- null}
h -t 0.685671586621142 -s 3 -d 10 -p ack -e 40 -c 0 -i 23 -a 0 -x {3.1 1.0 8 ------- null}
+ -t 0.687143586621142 -s 3 -d 10 -p ack -e 40 -c 0 -i 22 -a 0 -x {3.1 1.0 7 ------- null}
- -t 0.687143586621142 -s 3 -d 10 -p ack -e 40 -c 0 -i 22 -a 0 -x {3.1 1.0 7 ------- null}
h -t 0.687143586621142 -s 3 -d 10 -p ack -e 40 -c 0 -i 22 -a 0 -x {3.1 1.0 -1 ------- null}
- -t 0.692819586621142 -s 1 -d 10 -p tcp -e 1040 -c 0 -i 18 -a 0 -x {1.0 3.1 11 ------- null}
h -t 0.692819586621142 -s 1 -d 10 -p tcp -e 1040 -c 0 -i 18 -a 0 -x {1.0 3.1 -1 ------- null}
r -t 0.694199586621142 -s 10 -d 3 -p tcp -e 1040 -c 0 -i 16 -a 0 -x {1.0 3.1 9 ------- null}
h -t 0.694199586621142 -s 3 -d 10 -p ack -e 40 -c 0 -i 24 -a 0 -x {3.1 1.0 9 ------- null}
+ -t 0.695671586621142 -s 3 -d 10 -p ack -e 40 -c 0 -i 23 -a 0 -x {3.1 1.0 8 ------- null}
r -t 0.702727586621142 -s 10 -d 3 -p tcp -e 1040 -c 0 -i 17 -a 0 -x {1.0 3.1 10 ------- null}
h -t 0.702727586621142 -s 3 -d 10 -p ack -e 40 -c 0 -i 25 -a 0 -x {3.1 1.0 10 ------- null}
+ -t 0.704199586621142 -s 3 -d 10 -p ack -e 40 -c 0 -i 24 -a 0 -x {3.1 1.0 9 ------- null}
- -t 0.704307586621142 -s 1 -d 10 -p tcp -e 1040 -c 0 -i 19 -a 0 -x {1.0 3.1 12 ------- null}
h -t 0.704307586621142 -s 1 -d 10 -p tcp -e 1040 -c 0 -i 19 -a 0 -x {1.0 3.1 -1 ------- null}
+ -t 0.712727586621142 -s 3 -d 10 -p ack -e 40 -c 0 -i 25 -a 0 -x {3.1 1.0 10 ------- null}
- -t 0.713483586621142 -s 1 -d 10 -p tcp -e 1040 -c 0 -i 20 -a 0 -x {1.0 3.1 13 ------- null}
h -t 0.713483586621142 -s 1 -d 10 -p tcp -e 1040 -c 0 -i 20 -a 0 -x {1.0 3.1 -1 ------- null}
r -t 0.714215586621142 -s 10 -d 3 -p tcp -e 1040 -c 0 -i 18 -a 0 -x {1.0 3.1 11 ------- null}
h -t 0.714215586621142 -s 3 -d 10 -p ack -e 40 -c 0 -i 26 -a 0 -x {3.1 1.0 11 ------- null}
- -t 0.722147586621142 -s 1 -d 10 -p tcp -e 1040 -c 0 -i 21 -a 0 -x {1.0 3.1 14 ------- null}
h -t 0.722147586621142 -s 1 -d 10 -p tcp -e 1040 -c 0 -i 21 -a 0 -x {1.0 3.1 -1 ------- null}
r -t 0.723391586621142 -s 10 -d 3 -p tcp -e 1040 -c 0 -i 19 -a 0 -x {1.0 3.1 12 ------- null}
h -t 0.723391586621142 -s 3 -d 10 -p ack -e 40 -c 0 -i 27 -a 0 -x {3.1 1.0 12 ------- null}
+ -t 0.724215586621142 -s 3 -d 10 -p ack -e 40 -c 0 -i 26 -a 0 -x {3.1 1.0 11 ------- null}
- -t 0.731287586621142 -s 3 -d 10 -p ack -e 40 -c 0 -i 23 -a 0 -x {3.1 1.0 8 ------- null}
h -t 0.731287586621142 -s 3 -d 10 -p ack -e 40 -c 0 -i 23 -a 0 -x {3.1 1.0 -1 ------- null}
- -t 0.731895586621142 -s 3 -d 10 -p ack -e 40 -c 0 -i 24 -a 0 -x {3.1 1.0 9 ------- null}
h -t 0.731895586621142 -s 3 -d 10 -p ack -e 40 -c 0 -i 24 -a 0 -x {3.1 1.0 -1 ------- null}
r -t 0.732055586621142 -s 10 -d 3 -p tcp -e 1040 -c 0 -i 20 -a 0 -x {1.0 3.1 13 ------- null}
h -t 0.732055586621142 -s 3 -d 10 -p ack -e 40 -c 0 -i 28 -a 0 -x {3.1 1.0 13 ------- null}
- -t 0.732503586621142 -s 3 -d 10 -p ack -e 40 -c 0 -i 25 -a 0 -x {3.1 1.0 10 ------- null}
h -t 0.732503586621142 -s 3 -d 10 -p ack -e 40 -c 0 -i 25 -a 0 -x {3.1 1.0 -1 ------- null}
- -t 0.733111586621142 -s 3 -d 10 -p ack -e 40 -c 0 -i 26 -a 0 -x {3.1 1.0 11 ------- null}
h -t 0.733111586621142 -s 3 -d 10 -p ack -e 40 -c 0 -i 26 -a 0 -x {3.1 1.0 -1 ------- null}
+ -t 0.733391586621142 -s 3 -d 10 -p ack -e 40 -c 0 -i 27 -a 0 -x {3.1 1.0 12 ------- null}
- -t 0.733719586621142 -s 3 -d 10 -p ack -e 40 -c 0 -i 27 -a 0 -x {3.1 1.0 12 ------- null}
h -t 0.733719586621142 -s 3 -d 10 -p ack -e 40 -c 0 -i 27 -a 0 -x {3.1 1.0 -1 ------- null}
r -t 0.740583586621142 -s 10 -d 3 -p tcp -e 1040 -c 0 -i 21 -a 0 -x {1.0 3.1 14 ------- null}
h -t 0.740583586621142 -s 3 -d 10 -p ack -e 40 -c 0 -i 29 -a 0 -x {3.1 1.0 14 ------- null}
r -t 0.741195586621142 -s 10 -d 1 -p ack -e 40 -c 0 -i 22 -a 0 -x {3.1 1.0 7 ------- null}
h -t 0.741195586621142 -s 1 -d 10 -p tcp -e 1040 -c 0 -i 30 -a 0 -x {1.0 3.1 15 ------- null}
h -t 0.741195586621142 -s 1 -d 10 -p tcp -e 1040 -c 0 -i 31 -a 0 -x {1.0 3.1 16 ------- null}
r -t 0.741803586621142 -s 10 -d 1 -p ack -e 40 -c 0 -i 23 -a 0 -x {3.1 1.0 8 ------- null}
h -t 0.741803586621142 -s 1 -d 10 -p tcp -e 1040 -c 0 -i 32 -a 0 -x {1.0 3.1 17 ------- null}
h -t 0.741803586621142 -s 1 -d 10 -p tcp -e 1040 -c 0 -i 33 -a 0 -x {1.0 3.1 18 ------- null}
+ -t 0.742055586621142 -s 3 -d 10 -p ack -e 40 -c 0 -i 28 -a 0 -x {3.1 1.0 13 ------- null}
- -t 0.742055586621142 -s 3 -d 10 -p ack -e 40 -c 0 -i 28 -a 0 -x {3.1 1.0 13 ------- null}
h -t 0.742055586621142 -s 3 -d 10 -p ack -e 40 -c 0 -i 28 -a 0 -x {3.1 1.0 -1 ------- null}
r -t 0.742411586621142 -s 10 -d 1 -p ack -e 40 -c 0 -i 24 -a 0 -x {3.1 1.0 9 ------- null}
h -t 0.742411586621142 -s 1 -d 10 -p tcp -e 1040 -c 0 -i 34 -a 0 -x {1.0 3.1 19 ------- null}
h -t 0.742411586621142 -s 1 -d 10 -p tcp -e 1040 -c 0 -i 35 -a 0 -x {1.0 3.1 20 ------- null}
r -t 0.743019586621142 -s 10 -d 1 -p ack -e 40 -c 0 -i 25 -a 0 -x {3.1 1.0 10 ------- null}
h -t 0.743019586621142 -s 1 -d 10 -p tcp -e 1040 -c 0 -i 36 -a 0 -x {1.0 3.1 21 ------- null}
h -t 0.743019586621142 -s 1 -d 10 -p tcp -e 1040 -c 0 -i 37 -a 0 -x {1.0 3.1 22 ------- null}
r -t 0.743627586621142 -s 10 -d 1 -p ack -e 40 -c 0 -i 26 -a 0 -x {3.1 1.0 11 ------- null}
h -t 0.743627586621142 -s 1 -d 10 -p tcp -e 1040 -c 0 -i 38 -a 0 -x {1.0 3.1 23 ------- null}
h -t 0.743627586621142 -s 1 -d 10 -p tcp -e 1040 -c 0 -i 39 -a 0 -x {1.0 3.1 24 ------- null}
r -t 0.744235586621142 -s 10 -d 1 -p ack -e 40 -c 0 -i 27 -a 0 -x {3.1 1.0 12 ------- null}
h -t 0.744235586621142 -s 1 -d 10 -p tcp -e 1040 -c 0 -i 40 -a 0 -x {1.0 3.1 25 ------- null}
h -t 0.744235586621142 -s 1 -d 10 -p tcp -e 1040 -c 0 -i 41 -a 0 -x {1.0 3.1 26 ------- null}
h -t 0.75 -s 0 -d 10 -p tcp -e 40 -c 0 -i 42 -a 0 -x {0.0 3.0 0 ------- null}
+ -t 0.750583586621142 -s 3 -d 10 -p ack -e 40 -c 0 -i 29 -a 0 -x {3.1 1.0 14 ------- null}
- -t 0.750583586621142 -s 3 -d 10 -p ack -e 40 -c 0 -i 29 -a 0 -x {3.1 1.0 14 ------- null}
h -t 0.750583586621142 -s 3 -d 10 -p ack -e 40 -c 0 -i 29 -a 0 -x {3.1 1.0 -1 ------- null}
+ -t 0.751195586621142 -s 1 -d 10 -p tcp -e 1040 -c 0 -i 30 -a 0 -x {1.0 3.1 15 ------- null}
- -t 0.751195586621142 -s 1 -d 10 -p tcp -e 1040 -c 0 -i 30 -a 0 -x {1.0 3.1 15 ------- null}
h -t 0.751195586621142 -s 1 -d 10 -p tcp -e 1040 -c 0 -i 30 -a 0 -x {1.0 3.1 -1 ------- null}
+ -t 0.751195586621142 -s 1 -d 10 -p tcp -e 1040 -c 0 -i 31 -a 0 -x {1.0 3.1 16 ------- null}
+ -t 0.751803586621142 -s 1 -d 10 -p tcp -e 1040 -c 0 -i 32 -a 0 -x {1.0 3.1 17 ------- null}
+ -t 0.751803586621142 -s 1 -d 10 -p tcp -e 1040 -c 0 -i 33 -a 0 -x {1.0 3.1 18 ------- null}
+ -t 0.752411586621142 -s 1 -d 10 -p tcp -e 1040 -c 0 -i 34 -a 0 -x {1.0 3.1 19 ------- null}
+ -t 0.752411586621142 -s 1 -d 10 -p tcp -e 1040 -c 0 -i 35 -a 0 -x {1.0 3.1 20 ------- null}
r -t 0.752571586621142 -s 10 -d 1 -p ack -e 40 -c 0 -i 28 -a 0 -x {3.1 1.0 13 ------- null}
h -t 0.752571586621142 -s 1 -d 10 -p tcp -e 1040 -c 0 -i 43 -a 0 -x {1.0 3.1 27 ------- null}
h -t 0.752571586621142 -s 1 -d 10 -p tcp -e 1040 -c 0 -i 44 -a 0 -x {1.0 3.1 28 ------- null}
+ -t 0.753019586621142 -s 1 -d 10 -p tcp -e 1040 -c 0 -i 36 -a 0 -x {1.0 3.1 21 ------- null}
+ -t 0.753019586621142 -s 1 -d 10 -p tcp -e 1040 -c 0 -i 37 -a 0 -x {1.0 3.1 22 ------- null}
+ -t 0.753627586621142 -s 1 -d 10 -p tcp -e 1040 -c 0 -i 38 -a 0 -x {1.0 3.1 23 ------- null}
+ -t 0.753627586621142 -s 1 -d 10 -p tcp -e 1040 -c 0 -i 39 -a 0 -x {1.0 3.1 24 ------- null}
+ -t 0.754235586621142 -s 1 -d 10 -p tcp -e 1040 -c 0 -i 40 -a 0 -x {1.0 3.1 25 ------- null}
+ -t 0.754235586621142 -s 1 -d 10 -p tcp -e 1040 -c 0 -i 41 -a 0 -x {1.0 3.1 26 ------- null}
- -t 0.759723586621142 -s 1 -d 10 -p tcp -e 1040 -c 0 -i 31 -a 0 -x {1.0 3.1 16 ------- null}
h -t 0.759723586621142 -s 1 -d 10 -p tcp -e 1040 -c 0 -i 31 -a 0 -x {1.0 3.1 -1 ------- null}
+ -t 0.76 -s 0 -d 10 -p tcp -e 40 -c 0 -i 42 -a 0 -x {0.0 3.0 0 ------- null}
- -t 0.76 -s 0 -d 10 -p tcp -e 40 -c 0 -i 42 -a 0 -x {0.0 3.0 0 ------- null}
h -t 0.76 -s 0 -d 10 -p tcp -e 40 -c 0 -i 42 -a 0 -x {0.0 3.0 -1 ------- null}
r -t 0.761099586621142 -s 10 -d 1 -p ack -e 40 -c 0 -i 29 -a 0 -x {3.1 1.0 14 ------- null}
h -t 0.761099586621142 -s 1 -d 10 -p tcp -e 1040 -c 0 -i 45 -a 0 -x {1.0 3.1 29 ------- null}
h -t 0.761099586621142 -s 1 -d 10 -p tcp -e 1040 -c 0 -i 46 -a 0 -x {1.0 3.1 30 ------- null}
+ -t 0.762571586621142 -s 1 -d 10 -p tcp -e 1040 -c 0 -i 43 -a 0 -x {1.0 3.1 27 ------- null}
+ -t 0.762571586621142 -s 1 -d 10 -p tcp -e 1040 -c 0 -i 44 -a 0 -x {1.0 3.1 28 ------- null}
- -t 0.768251586621142 -s 1 -d 10 -p tcp -e 1040 -c 0 -i 32 -a 0 -x {1.0 3.1 17 ------- null}
h -t 0.768251586621142 -s 1 -d 10 -p tcp -e 1040 -c 0 -i 32 -a 0 -x {1.0 3.1 -1 ------- null}
r -t 0.769631586621142 -s 10 -d 3 -p tcp -e 1040 -c 0 -i 30 -a 0 -x {1.0 3.1 15 ------- null}
h -t 0.769631586621142 -s 3 -d 10 -p ack -e 40 -c 0 -i 47 -a 0 -x {3.1 1.0 15 ------- null}
+ -t 0.771099586621142 -s 1 -d 10 -p tcp -e 1040 -c 0 -i 45 -a 0 -x {1.0 3.1 29 ------- null}
+ -t 0.771099586621142 -s 1 -d 10 -p tcp -e 1040 -c 0 -i 46 -a 0 -x {1.0 3.1 30 ------- null}
- -t 0.777043586621142 -s 1 -d 10 -p tcp -e 1040 -c 0 -i 33 -a 0 -x {1.0 3.1 18 ------- null}
h -t 0.777043586621142 -s 1 -d 10 -p tcp -e 1040 -c 0 -i 33 -a 0 -x {1.0 3.1 -1 ------- null}
r -t 0.778159586621142 -s 10 -d 3 -p tcp -e 1040 -c 0 -i 31 -a 0 -x {1.0 3.1 16 ------- null}
h -t 0.778159586621142 -s 3 -d 10 -p ack -e 40 -c 0 -i 48 -a 0 -x {3.1 1.0 16 ------- null}
+ -t 0.779631586621142 -s 3 -d 10 -p ack -e 40 -c 0 -i 47 -a 0 -x {3.1 1.0 15 ------- null}
- -t 0.779631586621142 -s 3 -d 10 -p ack -e 40 -c 0 -i 47 -a 0 -x {3.1 1.0 15 ------- null}
h -t 0.779631586621142 -s 3 -d 10 -p ack -e 40 -c 0 -i 47 -a 0 -x {3.1 1.0 -1 ------- null}
- -t 0.786219586621142 -s 1 -d 10 -p tcp -e 1040 -c 0 -i 34 -a 0 -x {1.0 3.1 19 ------- null}
h -t 0.786219586621142 -s 1 -d 10 -p tcp -e 1040 -c 0 -i 34 -a 0 -x {1.0 3.1 -1 ------- null}
r -t 0.786951586621142 -s 10 -d 3 -p tcp -e 1040 -c 0 -i 32 -a 0 -x {1.0 3.1 17 ------- null}
h -t 0.786951586621142 -s 3 -d 10 -p ack -e 40 -c 0 -i 49 -a 0 -x {3.1 1.0 17 ------- null}
+ -t 0.788159586621142 -s 3 -d 10 -p ack -e 40 -c 0 -i 48 -a 0 -x {3.1 1.0 16 ------- null}
- -t 0.794883586621142 -s 1 -d 10 -p tcp -e 1040 -c 0 -i 35 -a 0 -x {1.0 3.1 20 ------- null}
h -t 0.794883586621142 -s 1 -d 10 -p tcp -e 1040 -c 0 -i 35 -a 0 -x {1.0 3.1 -1 ------- null}
r -t 0.796127586621142 -s 10 -d 3 -p tcp -e 1040 -c 0 -i 33 -a 0 -x {1.0 3.1 18 ------- null}
h -t 0.796127586621142 -s 3 -d 10 -p ack -e 40 -c 0 -i 50 -a 0 -x {3.1 1.0 18 ------- null}
+ -t 0.796951586621142 -s 3 -d 10 -p ack -e 40 -c 0 -i 49 -a 0 -x {3.1 1.0 17 ------- null}
r -t 0.804791586621142 -s 10 -d 3 -p tcp -e 1040 -c 0 -i 34 -a 0 -x {1.0 3.1 19 ------- null}
h -t 0.804791586621142 -s 3 -d 10 -p ack -e 40 -c 0 -i 51 -a 0 -x {3.1 1.0 19 ------- null}
- -t 0.805723586621142 -s 1 -d 10 -p tcp -e 1040 -c 0 -i 36 -a 0 -x {1.0 3.1 21 ------- null}
h -t 0.805723586621142 -s 1 -d 10 -p tcp -e 1040 -c 0 -i 36 -a 0 -x {1.0 3.1 -1 ------- null}
+ -t 0.806127586621142 -s 3 -d 10 -p ack -e 40 -c 0 -i 50 -a 0 -x {3.1 1.0 18 ------- null}
- -t 0.814387586621142 -s 1 -d 10 -p tcp -e 1040 -c 0 -i 37 -a 0 -x {1.0 3.1 22 ------- null}
h -t 0.814387586621142 -s 1 -d 10 -p tcp -e 1040 -c 0 -i 37 -a 0 -x {1.0 3.1 -1 ------- null}
+ -t 0.814791586621142 -s 3 -d 10 -p ack -e 40 -c 0 -i 51 -a 0 -x {3.1 1.0 19 ------- null}
r -t 0.815631586621142 -s 10 -d 3 -p tcp -e 1040 -c 0 -i 35 -a 0 -x {1.0 3.1 20 ------- null}
h -t 0.815631586621142 -s 3 -d 10 -p ack -e 40 -c 0 -i 52 -a 0 -x {3.1 1.0 20 ------- null}
- -t 0.823051586621142 -s 1 -d 10 -p tcp -e 1040 -c 0 -i 38 -a 0 -x {1.0 3.1 23 ------- null}
h -t 0.823051586621142 -s 1 -d 10 -p tcp -e 1040 -c 0 -i 38 -a 0 -x {1.0 3.1 -1 ------- null}
r -t 0.824295586621142 -s 10 -d 3 -p tcp -e 1040 -c 0 -i 36 -a 0 -x {1.0 3.1 21 ------- null}
h -t 0.824295586621142 -s 3 -d 10 -p ack -e 40 -c 0 -i 53 -a 0 -x {3.1 1.0 21 ------- null}
+ -t 0.825631586621142 -s 3 -d 10 -p ack -e 40 -c 0 -i 52 -a 0 -x {3.1 1.0 20 ------- null}
- -t 0.831715586621142 -s 1 -d 10 -p tcp -e 1040 -c 0 -i 39 -a 0 -x {1.0 3.1 24 ------- null}
h -t 0.831715586621142 -s 1 -d 10 -p tcp -e 1040 -c 0 -i 39 -a 0 -x {1.0 3.1 -1 ------- null}
r -t 0.832959586621142 -s 10 -d 3 -p tcp -e 1040 -c 0 -i 37 -a 0 -x {1.0 3.1 22 ------- null}
h -t 0.832959586621142 -s 3 -d 10 -p ack -e 40 -c 0 -i 54 -a 0 -x {3.1 1.0 22 ------- null}
+ -t 0.834295586621142 -s 3 -d 10 -p ack -e 40 -c 0 -i 53 -a 0 -x {3.1 1.0 21 ------- null}
- -t 0.840891586621142 -s 1 -d 10 -p tcp -e 1040 -c 0 -i 40 -a 0 -x {1.0 3.1 25 ------- null}
h -t 0.840891586621142 -s 1 -d 10 -p tcp -e 1040 -c 0 -i 40 -a 0 -x {1.0 3.1 -1 ------- null}
r -t 0.841623586621142 -s 10 -d 3 -p tcp -e 1040 -c 0 -i 38 -a 0 -x {1.0 3.1 23 ------- null}
h -t 0.841623586621142 -s 3 -d 10 -p ack -e 40 -c 0 -i 55 -a 0 -x {3.1 1.0 23 ------- null}
+ -t 0.842959586621142 -s 3 -d 10 -p ack -e 40 -c 0 -i 54 -a 0 -x {3.1 1.0 22 ------- null}
- -t 0.849555586621142 -s 1 -d 10 -p tcp -e 1040 -c 0 -i 41 -a 0 -x {1.0 3.1 26 ------- null}
h -t 0.849555586621142 -s 1 -d 10 -p tcp -e 1040 -c 0 -i 41 -a 0 -x {1.0 3.1 -1 ------- null}
r -t 0.850799586621142 -s 10 -d 3 -p tcp -e 1040 -c 0 -i 39 -a 0 -x {1.0 3.1 24 ------- null}
h -t 0.850799586621142 -s 3 -d 10 -p ack -e 40 -c 0 -i 56 -a 0 -x {3.1 1.0 24 ------- null}
+ -t 0.851623586621142 -s 3 -d 10 -p ack -e 40 -c 0 -i 55 -a 0 -x {3.1 1.0 23 ------- null}
- -t 0.858731586621142 -s 1 -d 10 -p tcp -e 1040 -c 0 -i 43 -a 0 -x {1.0 3.1 27 ------- null}
h -t 0.858731586621142 -s 1 -d 10 -p tcp -e 1040 -c 0 -i 43 -a 0 -x {1.0 3.1 -1 ------- null}
r -t 0.859463586621142 -s 10 -d 3 -p tcp -e 1040 -c 0 -i 40 -a 0 -x {1.0 3.1 25 ------- null}
h -t 0.859463586621142 -s 3 -d 10 -p ack -e 40 -c 0 -i 57 -a 0 -x {3.1 1.0 25 ------- null}
+ -t 0.860799586621142 -s 3 -d 10 -p ack -e 40 -c 0 -i 56 -a 0 -x {3.1 1.0 24 ------- null}
- -t 0.867395586621142 -s 1 -d 10 -p tcp -e 1040 -c 0 -i 44 -a 0 -x {1.0 3.1 28 ------- null}
h -t 0.867395586621142 -s 1 -d 10 -p tcp -e 1040 -c 0 -i 44 -a 0 -x {1.0 3.1 -1 ------- null}
r -t 0.868639586621142 -s 10 -d 3 -p tcp -e 1040 -c 0 -i 41 -a 0 -x {1.0 3.1 26 ------- null}
h -t 0.868639586621142 -s 3 -d 10 -p ack -e 40 -c 0 -i 58 -a 0 -x {3.1 1.0 26 ------- null}
+ -t 0.869463586621142 -s 3 -d 10 -p ack -e 40 -c 0 -i 57 -a 0 -x {3.1 1.0 25 ------- null}
- -t 0.875923586621142 -s 1 -d 10 -p tcp -e 1040 -c 0 -i 45 -a 0 -x {1.0 3.1 29 ------- null}
h -t 0.875923586621142 -s 1 -d 10 -p tcp -e 1040 -c 0 -i 45 -a 0 -x {1.0 3.1 -1 ------- null}
r -t 0.877303586621142 -s 10 -d 3 -p tcp -e 1040 -c 0 -i 43 -a 0 -x {1.0 3.1 27 ------- null}
h -t 0.877303586621142 -s 3 -d 10 -p ack -e 40 -c 0 -i 59 -a 0 -x {3.1 1.0 27 ------- null}
+ -t 0.878639586621142 -s 3 -d 10 -p ack -e 40 -c 0 -i 58 -a 0 -x {3.1 1.0 26 ------- null}
- -t 0.884451586621142 -s 1 -d 10 -p tcp -e 1040 -c 0 -i 46 -a 0 -x {1.0 3.1 30 ------- null}
h -t 0.884451586621142 -s 1 -d 10 -p tcp -e 1040 -c 0 -i 46 -a 0 -x {1.0 3.1 -1 ------- null}
r -t 0.885831586621142 -s 10 -d 3 -p tcp -e 1040 -c 0 -i 44 -a 0 -x {1.0 3.1 28 ------- null}
h -t 0.885831586621142 -s 3 -d 10 -p ack -e 40 -c 0 -i 60 -a 0 -x {3.1 1.0 28 ------- null}
+ -t 0.887303586621142 -s 3 -d 10 -p ack -e 40 -c 0 -i 59 -a 0 -x {3.1 1.0 27 ------- null}
- -t 0.893727586621142 -s 3 -d 10 -p ack -e 40 -c 0 -i 48 -a 0 -x {3.1 1.0 16 ------- null}
h -t 0.893727586621142 -s 3 -d 10 -p ack -e 40 -c 0 -i 48 -a 0 -x {3.1 1.0 -1 ------- null}
- -t 0.894335586621142 -s 3 -d 10 -p ack -e 40 -c 0 -i 49 -a 0 -x {3.1 1.0 17 ------- null}
h -t 0.894335586621142 -s 3 -d 10 -p ack -e 40 -c 0 -i 49 -a 0 -x {3.1 1.0 -1 ------- null}
r -t 0.894359586621142 -s 10 -d 3 -p tcp -e 1040 -c 0 -i 45 -a 0 -x {1.0 3.1 29 ------- null}
h -t 0.894359586621142 -s 3 -d 10 -p ack -e 40 -c 0 -i 61 -a 0 -x {3.1 1.0 29 ------- null}
- -t 0.894943586621142 -s 3 -d 10 -p ack -e 40 -c 0 -i 50 -a 0 -x {3.1 1.0 18 ------- null}
h -t 0.894943586621142 -s 3 -d 10 -p ack -e 40 -c 0 -i 50 -a 0 -x {3.1 1.0 -1 ------- null}
- -t 0.895551586621142 -s 3 -d 10 -p ack -e 40 -c 0 -i 51 -a 0 -x {3.1 1.0 19 ------- null}
h -t 0.895551586621142 -s 3 -d 10 -p ack -e 40 -c 0 -i 51 -a 0 -x {3.1 1.0 -1 ------- null}
+ -t 0.895831586621142 -s 3 -d 10 -p ack -e 40 -c 0 -i 60 -a 0 -x {3.1 1.0 28 ------- null}
- -t 0.896159586621142 -s 3 -d 10 -p ack -e 40 -c 0 -i 52 -a 0 -x {3.1 1.0 20 ------- null}
h -t 0.896159586621142 -s 3 -d 10 -p ack -e 40 -c 0 -i 52 -a 0 -x {3.1 1.0 -1 ------- null}
- -t 0.896767586621142 -s 3 -d 10 -p ack -e 40 -c 0 -i 53 -a 0 -x {3.1 1.0 21 ------- null}
h -t 0.896767586621142 -s 3 -d 10 -p ack -e 40 -c 0 -i 53 -a 0 -x {3.1 1.0 -1 ------- null}
- -t 0.897375586621142 -s 3 -d 10 -p ack -e 40 -c 0 -i 54 -a 0 -x {3.1 1.0 22 ------- null}
h -t 0.897375586621142 -s 3 -d 10 -p ack -e 40 -c 0 -i 54 -a 0 -x {3.1 1.0 -1 ------- null}
- -t 0.897983586621142 -s 3 -d 10 -p ack -e 40 -c 0 -i 55 -a 0 -x {3.1 1.0 23 ------- null}
h -t 0.897983586621142 -s 3 -d 10 -p ack -e 40 -c 0 -i 55 -a 0 -x {3.1 1.0 -1 ------- null}
- -t 0.898591586621141 -s 3 -d 10 -p ack -e 40 -c 0 -i 56 -a 0 -x {3.1 1.0 24 ------- null}
h -t 0.898591586621141 -s 3 -d 10 -p ack -e 40 -c 0 -i 56 -a 0 -x {3.1 1.0 -1 ------- null}
- -t 0.899199586621141 -s 3 -d 10 -p ack -e 40 -c 0 -i 57 -a 0 -x {3.1 1.0 25 ------- null}
h -t 0.899199586621141 -s 3 -d 10 -p ack -e 40 -c 0 -i 57 -a 0 -x {3.1 1.0 -1 ------- null}
- -t 0.899807586621141 -s 3 -d 10 -p ack -e 40 -c 0 -i 58 -a 0 -x {3.1 1.0 26 ------- null}
h -t 0.899807586621141 -s 3 -d 10 -p ack -e 40 -c 0 -i 58 -a 0 -x {3.1 1.0 -1 ------- null}
- -t 0.900415586621141 -s 3 -d 10 -p ack -e 40 -c 0 -i 59 -a 0 -x {3.1 1.0 27 ------- null}
h -t 0.900415586621141 -s 3 -d 10 -p ack -e 40 -c 0 -i 59 -a 0 -x {3.1 1.0 -1 ------- null}
- -t 0.901023586621141 -s 3 -d 10 -p ack -e 40 -c 0 -i 60 -a 0 -x {3.1 1.0 28 ------- null}
h -t 0.901023586621141 -s 3 -d 10 -p ack -e 40 -c 0 -i 60 -a 0 -x {3.1 1.0 -1 ------- null}
r -t 0.903023586621142 -s 10 -d 3 -p tcp -e 1040 -c 0 -i 46 -a 0 -x {1.0 3.1 30 ------- null}
h -t 0.903023586621142 -s 3 -d 10 -p ack -e 40 -c 0 -i 62 -a 0 -x {3.1 1.0 30 ------- null}
r -t 0.903635586621142 -s 10 -d 1 -p ack -e 40 -c 0 -i 47 -a 0 -x {3.1 1.0 15 ------- null}
h -t 0.903635586621142 -s 1 -d 10 -p tcp -e 1040 -c 0 -i 63 -a 0 -x {1.0 3.1 31 ------- null}
h -t 0.903635586621142 -s 1 -d 10 -p tcp -e 1040 -c 0 -i 64 -a 0 -x {1.0 3.1 32 ------- null}
r -t 0.904243586621142 -s 10 -d 1 -p ack -e 40 -c 0 -i 48 -a 0 -x {3.1 1.0 16 ------- null}
h -t 0.904243586621142 -s 1 -d 10 -p tcp -e 1040 -c 0 -i 65 -a 0 -x {1.0 3.1 33 ------- null}
h -t 0.904243586621142 -s 1 -d 10 -p tcp -e 1040 -c 0 -i 66 -a 0 -x {1.0 3.1 34 ------- null}
+ -t 0.904359586621142 -s 3 -d 10 -p ack -e 40 -c 0 -i 61 -a 0 -x {3.1 1.0 29 ------- null}
- -t 0.904359586621142 -s 3 -d 10 -p ack -e 40 -c 0 -i 61 -a 0 -x {3.1 1.0 29 ------- null}
h -t 0.904359586621142 -s 3 -d 10 -p ack -e 40 -c 0 -i 61 -a 0 -x {3.1 1.0 -1 ------- null}
r -t 0.904851586621142 -s 10 -d 1 -p ack -e 40 -c 0 -i 49 -a 0 -x {3.1 1.0 17 ------- null}
h -t 0.904851586621142 -s 1 -d 10 -p tcp -e 1040 -c 0 -i 67 -a 0 -x {1.0 3.1 35 ------- null}
h -t 0.904851586621142 -s 1 -d 10 -p tcp -e 1040 -c 0 -i 68 -a 0 -x {1.0 3.1 36 ------- null}
r -t 0.905459586621142 -s 10 -d 1 -p ack -e 40 -c 0 -i 50 -a 0 -x {3.1 1.0 18 ------- null}
h -t 0.905459586621142 -s 1 -d 10 -p tcp -e 1040 -c 0 -i 69 -a 0 -x {1.0 3.1 37 ------- null}
h -t 0.905459586621142 -s 1 -d 10 -p tcp -e 1040 -c 0 -i 70 -a 0 -x {1.0 3.1 38 ------- null}
r -t 0.906067586621142 -s 10 -d 1 -p ack -e 40 -c 0 -i 51 -a 0 -x {3.1 1.0 19 ------- null}
h -t 0.906067586621142 -s 1 -d 10 -p tcp -e 1040 -c 0 -i 71 -a 0 -x {1.0 3.1 39 ------- null}
r -t 0.906675586621142 -s 10 -d 1 -p ack -e 40 -c 0 -i 52 -a 0 -x {3.1 1.0 20 ------- null}
h -t 0.906675586621142 -s 1 -d 10 -p tcp -e 1040 -c 0 -i 72 -a 0 -x {1.0 3.1 40 ------- null}
r -t 0.907283586621142 -s 10 -d 1 -p ack -e 40 -c 0 -i 53 -a 0 -x {3.1 1.0 21 ------- null}
h -t 0.907283586621142 -s 1 -d 10 -p tcp -e 1040 -c 0 -i 73 -a 0 -x {1.0 3.1 41 ------- null}
r -t 0.907891586621142 -s 10 -d 1 -p ack -e 40 -c 0 -i 54 -a 0 -x {3.1 1.0 22 ------- null}