h 0.504092 1 10 tcp 40 ------- 0 1.0 3.1 0 0
+ 0.514092 1 10 tcp 40 ------- 0 1.0 3.1 0 0
- 0.514092 1 10 tcp 40 ------- 0 1.0 3.1 0 0
r 0.524608 10 3 tcp 40 ------- 0 1.0 3.1 0 0
h 0.524608 3 10 ack 40 ------- 0 3.1 1.0 0 1
+ 0.534608 3 10 ack 40 ------- 0 3.1 1.0 0 1
- 0.534608 3 10 ack 40 ------- 0 3.1 1.0 0 1
r 0.545124 10 1 ack 40 ------- 0 3.1 1.0 0 1
h 0.545124 1 10 tcp 1040 ------- 0 1.0 3.1 1 2
h 0.545124 1 10 tcp 1040 ------- 0 1.0 3.1 2 3
+ 0.555124 1 10 tcp 1040 ------- 0 1.0 3.1 1 2
- 0.555124 1 10 tcp 1040 ------- 0 1.0 3.1 1 2
+ 0.555124 1 10 tcp 1040 ------- 0 1.0 3.1 2 3
- 0.563652 1 10 tcp 1040 ------- 0 1.0 3.1 2 3
r 0.57356 10 3 tcp 1040 ------- 0 1.0 3.1 1 2
h 0.57356 3 10 ack 40 ------- 0 3.1 1.0 1 4
r 0.582088 10 3 tcp 1040 ------- 0 1.0 3.1 2 3
h 0.582088 3 10 ack 40 ------- 0 3.1 1.0 2 5
+ 0.58356 3 10 ack 40 ------- 0 3.1 1.0 1 4
- 0.58356 3 10 ack 40 ------- 0 3.1 1.0 1 4
+ 0.592088 3 10 ack 40 ------- 0 3.1 1.0 2 5
- 0.592088 3 10 ack 40 ------- 0 3.1 1.0 2 5
r 0.594076 10 1 ack 40 ------- 0 3.1 1.0 1 4
h 0.594076 1 10 tcp 1040 ------- 0 1.0 3.1 3 6
h 0.594076 1 10 tcp 1040 ------- 0 1.0 3.1 4 7
r 0.602604 10 1 ack 40 ------- 0 3.1 1.0 2 5
h 0.602604 1 10 tcp 1040 ------- 0 1.0 3.1 5 8
h 0.602604 1 10 tcp 1040 ------- 0 1.0 3.1 6 9
+ 0.604076 1 10 tcp 1040 ------- 0 1.0 3.1 3 6
- 0.604076 1 10 tcp 1040 ------- 0 1.0 3.1 3 6
+ 0.604076 1 10 tcp 1040 ------- 0 1.0 3.1 4 7
+ 0.612604 1 10 tcp 1040 ------- 0 1.0 3.1 5 8
+ 0.612604 1 10 tcp 1040 ------- 0 1.0 3.1 6 9
- 0.612604 1 10 tcp 1040 ------- 0 1.0 3.1 4 7
- 0.621132 1 10 tcp 1040 ------- 0 1.0 3.1 5 8
r 0.622512 10 3 tcp 1040 ------- 0 1.0 3.1 3 6
h 0.622512 3 10 ack 40 ------- 0 3.1 1.0 3 10
- 0.62966 1 10 tcp 1040 ------- 0 1.0 3.1 6 9
r 0.63104 10 3 tcp 1040 ------- 0 1.0 3.1 4 7
h 0.63104 3 10 ack 40 ------- 0 3.1 1.0 4 11
+ 0.632512 3 10 ack 40 ------- 0 3.1 1.0 3 10
- 0.632512 3 10 ack 40 ------- 0 3.1 1.0 3 10
r 0.639568 10 3 tcp 1040 ------- 0 1.0 3.1 5 8
h 0.639568 3 10 ack 40 ------- 0 3.1 1.0 5 12
+ 0.64104 3 10 ack 40 ------- 0 3.1 1.0 4 11
- 0.64104 3 10 ack 40 ------- 0 3.1 1.0 4 11
r 0.648096 10 3 tcp 1040 ------- 0 1.0 3.1 6 9
h 0.648096 3 10 ack 40 ------- 0 3.1 1.0 6 13
r 0.648708 10 1 ack 40 ------- 0 3.1 1.0 3 10
h 0.648708 1 10 tcp 1040 ------- 0 1.0 3.1 7 14
h 0.648708 1 10 tcp 1040 ------- 0 1.0 3.1 8 15
+ 0.649568 3 10 ack 40 ------- 0 3.1 1.0 5 12
- 0.649568 3 10 ack 40 ------- 0 3.1 1.0 5 12
r 0.651556 10 1 ack 40 ------- 0 3.1 1.0 4 11
h 0.651556 1 10 tcp 1040 ------- 0 1.0 3.1 9 16
h 0.651556 1 10 tcp 1040 ------- 0 1.0 3.1 10 17
+ 0.658096 3 10 ack 40 ------- 0 3.1 1.0 6 13
- 0.658096 3 10 ack 40 ------- 0 3.1 1.0 6 13
+ 0.658708 1 10 tcp 1040 ------- 0 1.0 3.1 7 14
- 0.658708 1 10 tcp 1040 ------- 0 1.0 3.1 7 14
+ 0.658708 1 10 tcp 1040 ------- 0 1.0 3.1 8 15
r 0.660084 10 1 ack 40 ------- 0 3.1 1.0 5 12
h 0.660084 1 10 tcp 1040 ------- 0 1.0 3.1 11 18
h 0.660084 1 10 tcp 1040 ------- 0 1.0 3.1 12 19
+ 0.661556 1 10 tcp 1040 ------- 0 1.0 3.1 9 16
+ 0.661556 1 10 tcp 1040 ------- 0 1.0 3.1 10 17
- 0.667236 1 10 tcp 1040 ------- 0 1.0 3.1 8 15
r 0.668612 10 1 ack 40 ------- 0 3.1 1.0 6 13
h 0.668612 1 10 tcp 1040 ------- 0 1.0 3.1 13 20
h 0.668612 1 10 tcp 1040 ------- 0 1.0 3.1 14 21
+ 0.670084 1 10 tcp 1040 ------- 0 1.0 3.1 11 18
+ 0.670084 1 10 tcp 1040 ------- 0 1.0 3.1 12 19
- 0.675764 1 10 tcp 1040 ------- 0 1.0 3.1 9 16
r 0.677144 10 3 tcp 1040 ------- 0 1.0 3.1 7 14
h 0.677144 3 10 ack 40 ------- 0 3.1 1.0 7 22
+ 0.678612 1 10 tcp 1040 ------- 0 1.0 3.1 13 20
+ 0.678612 1 10 tcp 1040 ------- 0 1.0 3.1 14 21
- 0.684292 1 10 tcp 1040 ------- 0 1.0 3.1 10 17
r 0.685672 10 3 tcp 1040 ------- 0 1.0 3.1 8 15
h 0.685672 3 10 ack 40 ------- 0 3.1 1.0 8 23
+ 0.687144 3 10 ack 40 ------- 0 3.1 1.0 7 22
- 0.687144 3 10 ack 40 ------- 0 3.1 1.0 7 22
- 0.69282 1 10 tcp 1040 ------- 0 1.0 3.1 11 18
r 0.6942 10 3 tcp 1040 ------- 0 1.0 3.1 9 16
h 0.6942 3 10 ack 40 ------- 0 3.1 1.0 9 24
+ 0.695672 3 10 ack 40 ------- 0 3.1 1.0 8 23
r 0.702728 10 3 tcp 1040 ------- 0 1.0 3.1 10 17
h 0.702728 3 10 ack 40 ------- 0 3.1 1.0 10 25
+ 0.7042 3 10 ack 40 ------- 0 3.1 1.0 9 24
- 0.704308 1 10 tcp 1040 ------- 0 1.0 3.1 12 19
+ 0.712728 3 10 ack 40 ------- 0 3.1 1.0 10 25
- 0.713484 1 10 tcp 1040 ------- 0 1.0 3.1 13 20
r 0.714216 10 3 tcp 1040 ------- 0 1.0 3.1 11 18
h 0.714216 3 10 ack 40 ------- 0 3.1 1.0 11 26
- 0.722148 1 10 tcp 1040 ------- 0 1.0 3.1 14 21
r 0.723392 10 3 tcp 1040 ------- 0 1.0 3.1 12 19
h 0.723392 3 10 ack 40 ------- 0 3.1 1.0 12 27
+ 0.724216 3 10 ack 40 ------- 0 3.1 1.0 11 26
- 0.731288 3 10 ack 40 ------- 0 3.1 1.0 8 23
- 0.731896 3 10 ack 40 ------- 0 3.1 1.0 9 24
r 0.732056 10 3 tcp 1040 ------- 0 1.0 3.1 13 20
h 0.732056 3 10 ack 40 ------- 0 3.1 1.0 13 28
- 0.732504 3 10 ack 40 ------- 0 3.1 1.0 10 25
- 0.733112 3 10 ack 40 ------- 0 3.1 1.0 11 26
+ 0.733392 3 10 ack 40 ------- 0 3.1 1.0 12 27
- 0.73372 3 10 ack 40 ------- 0 3.1 1.0 12 27
r 0.740584 10 3 tcp 1040 ------- 0 1.0 3.1 14 21
h 0.740584 3 10 ack 40 ------- 0 3.1 1.0 14 29
r 0.741196 10 1 ack 40 ------- 0 3.1 1.0 7 22
h 0.741196 1 10 tcp 1040 ------- 0 1.0 3.1 15 30
h 0.741196 1 10 tcp 1040 ------- 0 1.0 3.1 16 31
r 0.741804 10 1 ack 40 ------- 0 3.1 1.0 8 23
h 0.741804 1 10 tcp 1040 ------- 0 1.0 3.1 17 32
h 0.741804 1 10 tcp 1040 ------- 0 1.0 3.1 18 33
+ 0.742056 3 10 ack 40 ------- 0 3.1 1.0 13 28
- 0.742056 3 10 ack 40 ------- 0 3.1 1.0 13 28
r 0.742412 10 1 ack 40 ------- 0 3.1 1.0 9 24
h 0.742412 1 10 tcp 1040 ------- 0 1.0 3.1 19 34
h 0.742412 1 10 tcp 1040 ------- 0 1.0 3.1 20 35
r 0.74302 10 1 ack 40 ------- 0 3.1 1.0 10 25
h 0.74302 1 10 tcp 1040 ------- 0 1.0 3.1 21 36
h 0.74302 1 10 tcp 1040 ------- 0 1.0 3.1 22 37
r 0.743628 10 1 ack 40 ------- 0 3.1 1.0 11 26
h 0.743628 1 10 tcp 1040 ------- 0 1.0 3.1 23 38
h 0.743628 1 10 tcp 1040 ------- 0 1.0 3.1 24 39
r 0.744236 10 1 ack 40 ------- 0 3.1 1.0 12 27
h 0.744236 1 10 tcp 1040 ------- 0 1.0 3.1 25 40
h 0.744236 1 10 tcp 1040 ------- 0 1.0 3.1 26 41
h 0.75 0 10 tcp 40 ------- 0 0.0 3.0 0 42
+ 0.750584 3 10 ack 40 ------- 0 3.1 1.0 14 29
- 0.750584 3 10 ack 40 ------- 0 3.1 1.0 14 29
+ 0.751196 1 10 tcp 1040 ------- 0 1.0 3.1 15 30
- 0.751196 1 10 tcp 1040 ------- 0 1.0 3.1 15 30
+ 0.751196 1 10 tcp 1040 ------- 0 1.0 3.1 16 31
+ 0.751804 1 10 tcp 1040 ------- 0 1.0 3.1 17 32
+ 0.751804 1 10 tcp 1040 ------- 0 1.0 3.1 18 33
+ 0.752412 1 10 tcp 1040 ------- 0 1.0 3.1 19 34
+ 0.752412 1 10 tcp 1040 ------- 0 1.0 3.1 20 35
r 0.752572 10 1 ack 40 ------- 0 3.1 1.0 13 28
h 0.752572 1 10 tcp 1040 ------- 0 1.0 3.1 27 43
h 0.752572 1 10 tcp 1040 ------- 0 1.0 3.1 28 44
+ 0.75302 1 10 tcp 1040 ------- 0 1.0 3.1 21 36
+ 0.75302 1 10 tcp 1040 ------- 0 1.0 3.1 22 37
+ 0.753628 1 10 tcp 1040 ------- 0 1.0 3.1 23 38
+ 0.753628 1 10 tcp 1040 ------- 0 1.0 3.1 24 39
+ 0.754236 1 10 tcp 1040 ------- 0 1.0 3.1 25 40
+ 0.754236 1 10 tcp 1040 ------- 0 1.0 3.1 26 41
- 0.759724 1 10 tcp 1040 ------- 0 1.0 3.1 16 31
+ 0.76 0 10 tcp 40 ------- 0 0.0 3.0 0 42
- 0.76 0 10 tcp 40 ------- 0 0.0 3.0 0 42
r 0.7611 10 1 ack 40 ------- 0 3.1 1.0 14 29
h 0.7611 1 10 tcp 1040 ------- 0 1.0 3.1 29 45
h 0.7611 1 10 tcp 1040 ------- 0 1.0 3.1 30 46
+ 0.762572 1 10 tcp 1040 ------- 0 1.0 3.1 27 43
+ 0.762572 1 10 tcp 1040 ------- 0 1.0 3.1 28 44
- 0.768252 1 10 tcp 1040 ------- 0 1.0 3.1 17 32
r 0.769632 10 3 tcp 1040 ------- 0 1.0 3.1 15 30
h 0.769632 3 10 ack 40 ------- 0 3.1 1.0 15 47
+ 0.7711 1 10 tcp 1040 ------- 0 1.0 3.1 29 45
+ 0.7711 1 10 tcp 1040 ------- 0 1.0 3.1 30 46
- 0.777044 1 10 tcp 1040 ------- 0 1.0 3.1 18 33
r 0.77816 10 3 tcp 1040 ------- 0 1.0 3.1 16 31
h 0.77816 3 10 ack 40 ------- 0 3.1 1.0 16 48
+ 0.779632 3 10 ack 40 ------- 0 3.1 1.0 15 47
- 0.779632 3 10 ack 40 ------- 0 3.1 1.0 15 47
- 0.78622 1 10 tcp 1040 ------- 0 1.0 3.1 19 34
r 0.786952 10 3 tcp 1040 ------- 0 1.0 3.1 17 32
h 0.786952 3 10 ack 40 ------- 0 3.1 1.0 17 49
+ 0.78816 3 10 ack 40 ------- 0 3.1 1.0 16 48
- 0.794884 1 10 tcp 1040 ------- 0 1.0 3.1 20 35
r 0.796128 10 3 tcp 1040 ------- 0 1.0 3.1 18 33
h 0.796128 3 10 ack 40 ------- 0 3.1 1.0 18 50
+ 0.796952 3 10 ack 40 ------- 0 3.1 1.0 17 49
r 0.804792 10 3 tcp 1040 ------- 0 1.0 3.1 19 34
h 0.804792 3 10 ack 40 ------- 0 3.1 1.0 19 51
- 0.805724 1 10 tcp 1040 ------- 0 1.0 3.1 21 36
+ 0.806128 3 10 ack 40 ------- 0 3.1 1.0 18 50
- 0.814388 1 10 tcp 1040 ------- 0 1.0 3.1 22 37
+ 0.814792 3 10 ack 40 ------- 0 3.1 1.0 19 51
r 0.815632 10 3 tcp 1040 ------- 0 1.0 3.1 20 35
h 0.815632 3 10 ack 40 ------- 0 3.1 1.0 20 52
- 0.823052 1 10 tcp 1040 ------- 0 1.0 3.1 23 38
r 0.824296 10 3 tcp 1040 ------- 0 1.0 3.1 21 36
h 0.824296 3 10 ack 40 ------- 0 3.1 1.0 21 53
+ 0.825632 3 10 ack 40 ------- 0 3.1 1.0 20 52
- 0.831716 1 10 tcp 1040 ------- 0 1.0 3.1 24 39
r 0.83296 10 3 tcp 1040 ------- 0 1.0 3.1 22 37
h 0.83296 3 10 ack 40 ------- 0 3.1 1.0 22 54
+ 0.834296 3 10 ack 40 ------- 0 3.1 1.0 21 53
- 0.840892 1 10 tcp 1040 ------- 0 1.0 3.1 25 40
r 0.841624 10 3 tcp 1040 ------- 0 1.0 3.1 23 38
h 0.841624 3 10 ack 40 ------- 0 3.1 1.0 23 55
+ 0.84296 3 10 ack 40 ------- 0 3.1 1.0 22 54
- 0.849556 1 10 tcp 1040 ------- 0 1.0 3.1 26 41
r 0.8508 10 3 tcp 1040 ------- 0 1.0 3.1 24 39
h 0.8508 3 10 ack 40 ------- 0 3.1 1.0 24 56
+ 0.851624 3 10 ack 40 ------- 0 3.1 1.0 23 55
- 0.858732 1 10 tcp 1040 ------- 0 1.0 3.1 27 43
r 0.859464 10 3 tcp 1040 ------- 0 1.0 3.1 25 40
h 0.859464 3 10 ack 40 ------- 0 3.1 1.0 25 57
+ 0.8608 3 10 ack 40 ------- 0 3.1 1.0 24 56
- 0.867396 1 10 tcp 1040 ------- 0 1.0 3.1 28 44
r 0.86864 10 3 tcp 1040 ------- 0 1.0 3.1 26 41
h 0.86864 3 10 ack 40 ------- 0 3.1 1.0 26 58
+ 0.869464 3 10 ack 40 ------- 0 3.1 1.0 25 57
- 0.875924 1 10 tcp 1040 ------- 0 1.0 3.1 29 45
r 0.877304 10 3 tcp 1040 ------- 0 1.0 3.1 27 43
h 0.877304 3 10 ack 40 ------- 0 3.1 1.0 27 59
+ 0.87864 3 10 ack 40 ------- 0 3.1 1.0 26 58
- 0.884452 1 10 tcp 1040 ------- 0 1.0 3.1 30 46
r 0.885832 10 3 tcp 1040 ------- 0 1.0 3.1 28 44
h 0.885832 3 10 ack 40 ------- 0 3.1 1.0 28 60
+ 0.887304 3 10 ack 40 ------- 0 3.1 1.0 27 59
- 0.893728 3 10 ack 40 ------- 0 3.1 1.0 16 48
- 0.894336 3 10 ack 40 ------- 0 3.1 1.0 17 49
r 0.89436 10 3 tcp 1040 ------- 0 1.0 3.1 29 45
h 0.89436 3 10 ack 40 ------- 0 3.1 1.0 29 61
- 0.894944 3 10 ack 40 ------- 0 3.1 1.0 18 50
- 0.895552 3 10 ack 40 ------- 0 3.1 1.0 19 51
+ 0.895832 3 10 ack 40 ------- 0 3.1 1.0 28 60
- 0.89616 3 10 ack 40 ------- 0 3.1 1.0 20 52
- 0.896768 3 10 ack 40 ------- 0 3.1 1.0 21 53
- 0.897376 3 10 ack 40 ------- 0 3.1 1.0 22 54
- 0.897984 3 10 ack 40 ------- 0 3.1 1.0 23 55
- 0.898592 3 10 ack 40 ------- 0 3.1 1.0 24 56
- 0.8992 3 10 ack 40 ------- 0 3.1 1.0 25 57
- 0.899808 3 10 ack 40 ------- 0 3.1 1.0 26 58
- 0.900416 3 10 ack 40 ------- 0 3.1 1.0 27 59
- 0.901024 3 10 ack 40 ------- 0 3.1 1.0 28 60
r 0.903024 10 3 tcp 1040 ------- 0 1.0 3.1 30 46
h 0.903024 3 10 ack 40 ------- 0 3.1 1.0 30 62
r 0.903636 10 1 ack 40 ------- 0 3.1 1.0 15 47
h 0.903636 1 10 tcp 1040 ------- 0 1.0 3.1 31 63
h 0.903636 1 10 tcp 1040 ------- 0 1.0 3.1 32 64
r 0.904244 10 1 ack 40 ------- 0 3.1 1.0 16 48
h 0.904244 1 10 tcp 1040 ------- 0 1.0 3.1 33 65
h 0.904244 1 10 tcp 1040 ------- 0 1.0 3.1 34 66
+ 0.90436 3 10 ack 40 ------- 0 3.1 1.0 29 61
- 0.90436 3 10 ack 40 ------- 0 3.1 1.0 29 61
r 0.904852 10 1 ack 40 ------- 0 3.1 1.0 17 49
h 0.904852 1 10 tcp 1040 ------- 0 1.0 3.1 35 67
h 0.904852 1 10 tcp 1040 ------- 0 1.0 3.1 36 68
r 0.90546 10 1 ack 40 ------- 0 3.1 1.0 18 50
h 0.90546 1 10 tcp 1040 ------- 0 1.0 3.1 37 69
h 0.90546 1 10 tcp 1040 ------- 0 1.0 3.1 38 70
r 0.906068 10 1 ack 40 ------- 0 3.1 1.0 19 51
h 0.906068 1 10 tcp 1040 ------- 0 1.0 3.1 39 71
r 0.906676 10 1 ack 40 ------- 0 3.1 1.0 20 52
h 0.906676 1 10 tcp 1040 ------- 0 1.0 3.1 40 72
r 0.907284 10 1 ack 40 ------- 0 3.1 1.0 21 53
h 0.907284 1 10 tcp 1040 ------- 0 1.0 3.1 41 73
r 0.907892 10 1 ack 40 ------- 0 3.1 1.0 22 54
h 0.907892 1 10 tcp 1040 ------- 0 1.0 3.1 42 74
r 0.9085 10 1 ack 40 ------- 0 3.1 1.0 23 55
h 0.9085 1 10 tcp 1040 ------- 0 1.0 3.1 43 75
r 0.909108 10 1 ack 40 ------- 0 3.1 1.0 24 56
h 0.909108 1 10 tcp 1040 ------- 0 1.0 3.1 44 76
r 0.909716 10 1 ack 40 ------- 0 3.1 1.0 25 57
h 0.909716 1 10 tcp 1040 ------- 0 1.0 3.1 45 77
r 0.910324 10 1 ack 40 ------- 0 3.1 1.0 26 58
h 0.910324 1 10 tcp 1040 ------- 0 1.0 3.1 46 78
r 0.910932 10 1 ack 40 ------- 0 3.1 1.0 27 59
h 0.910932 1 10 tcp 1040 ------- 0 1.0 3.1 47 79
r 0.91154 10 1 ack 40 ------- 0 3.1 1.0 28 60
h 0.91154 1 10 tcp 1040 ------- 0 1.0 3.1 48 80
+ 0.913024 3 10 ack 40 ------- 0 3.1 1.0 30 62
- 0.913024 3 10 ack 40 ------- 0 3.1 1.0 30 62
+ 0.913636 1 10 tcp 1040 ------- 0 1.0 3.1 31 63
- 0.913636 1 10 tcp 1040 ------- 0 1.0 3.1 31 63
+ 0.913636 1 10 tcp 1040 ------- 0 1.0 3.1 32 64
+ 0.914244 1 10 tcp 1040 ------- 0 1.0 3.1 33 65
+ 0.914244 1 10 tcp 1040 ------- 0 1.0 3.1 34 66
+ 0.914852 1 10 tcp 1040 ------- 0 1.0 3.1 35 67
+ 0.914852 1 10 tcp 1040 ------- 0 1.0 3.1 36 68
r 0.914876 10 1 ack 40 ------- 0 3.1 1.0 29 61
h 0.914876 1 10 tcp 1040 ------- 0 1.0 3.1 49 81
+ 0.91546 1 10 tcp 1040 ------- 0 1.0 3.1 37 69
+ 0.91546 1 10 tcp 1040 ------- 0 1.0 3.1 38 70
+ 0.916068 1 10 tcp 1040 ------- 0 1.0 3.1 39 71
+ 0.916676 1 10 tcp 1040 ------- 0 1.0 3.1 40 72
+ 0.917284 1 10 tcp 1040 ------- 0 1.0 3.1 41 73
+ 0.917892 1 10 tcp 1040 ------- 0 1.0 3.1 42 74
+ 0.9185 1 10 tcp 1040 ------- 0 1.0 3.1 43 75
+ 0.919108 1 10 tcp 1040 ------- 0 1.0 3.1 44 76
+ 0.919716 1 10 tcp 1040 ------- 0 1.0 3.1 45 77
+ 0.920324 1 10 tcp 1040 ------- 0 1.0 3.1 46 78
+ 0.920932 1 10 tcp 1040 ------- 0 1.0 3.1 47 79
+ 0.92154 1 10 tcp 1040 ------- 0 1.0 3.1 48 80
- 0.922164 1 10 tcp 1040 ------- 0 1.0 3.1 32 64
r 0.92354 10 1 ack 40 ------- 0 3.1 1.0 30 62
h 0.92354 1 10 tcp 1040 ------- 0 1.0 3.1 50 82
+ 0.924876 1 10 tcp 1040 ------- 0 1.0 3.1 49 81
- 0.930692 1 10 tcp 1040 ------- 0 1.0 3.1 33 65
r 0.932072 10 3 tcp 1040 ------- 0 1.0 3.1 31 63
h 0.932072 3 10 ack 40 ------- 0 3.1 1.0 31 83
+ 0.93354 1 10 tcp 1040 ------- 0 1.0 3.1 50 82
- 0.93922 1 10 tcp 1040 ------- 0 1.0 3.1 34 66
r 0.9406 10 3 tcp 1040 ------- 0 1.0 3.1 32 64
h 0.9406 3 10 ack 40 ------- 0 3.1 1.0 32 84
+ 0.942072 3 10 ack 40 ------- 0 3.1 1.0 31 83
- 0.942072 3 10 ack 40 ------- 0 3.1 1.0 31 83
- 0.947748 1 10 tcp 1040 ------- 0 1.0 3.1 35 67
r 0.949128 10 3 tcp 1040 ------- 0 1.0 3.1 33 65
h 0.949128 3 10 ack 40 ------- 0 3.1 1.0 33 85
+ 0.9506 3 10 ack 40 ------- 0 3.1 1.0 32 84
- 0.9506 3 10 ack 40 ------- 0 3.1 1.0 32 84
r 0.957656 10 3 tcp 1040 ------- 0 1.0 3.1 34 66
h 0.957656 3 10 ack 40 ------- 0 3.1 1.0 34 86
- 0.957668 1 10 tcp 1040 ------- 0 1.0 3.1 36 68
r 0.959044 10 1 ack 40 ------- 0 3.1 1.0 31 83
h 0.959044 1 10 tcp 1040 ------- 0 1.0 3.1 51 87
+ 0.959128 3 10 ack 40 ------- 0 3.1 1.0 33 85
- 0.967484 1 10 tcp 1040 ------- 0 1.0 3.1 37 69
r 0.967576 10 3 tcp 1040 ------- 0 1.0 3.1 35 67
h 0.967576 3 10 ack 40 ------- 0 3.1 1.0 35 88
+ 0.967656 3 10 ack 40 ------- 0 3.1 1.0 34 86
+ 0.969044 1 10 tcp 1040 ------- 0 1.0 3.1 51 87
- 0.97666 1 10 tcp 1040 ------- 0 1.0 3.1 38 70
r 0.977392 10 3 tcp 1040 ------- 0 1.0 3.1 36 68
h 0.977392 3 10 ack 40 ------- 0 3.1 1.0 36 89
+ 0.977576 3 10 ack 40 ------- 0 3.1 1.0 35 88
- 0.985836 1 10 tcp 1040 ------- 0 1.0 3.1 39 71
r 0.986568 10 3 tcp 1040 ------- 0 1.0 3.1 37 69
h 0.986568 3 10 ack 40 ------- 0 3.1 1.0 37 90
+ 0.987392 3 10 ack 40 ------- 0 3.1 1.0 36 89
- 0.9945 1 10 tcp 1040 ------- 0 1.0 3.1 40 72
r 0.995744 10 3 tcp 1040 ------- 0 1.0 3.1 38 70
h 0.995744 3 10 ack 40 ------- 0 3.1 1.0 38 91
+ 0.996568 3 10 ack 40 ------- 0 3.1 1.0 37 90
- 1.003164 1 10 tcp 1040 ------- 0 1.0 3.1 41 73
r 1.004408 10 3 tcp 1040 ------- 0 1.0 3.1 39 71
h 1.004408 3 10 ack 40 ------- 0 3.1 1.0 39 92
+ 1.005744 3 10 ack 40 ------- 0 3.1 1.0 38 91
- 1.01234 1 10 tcp 1040 ------- 0 1.0 3.1 42 74
r 1.013072 10 3 tcp 1040 ------- 0 1.0 3.1 40 72
h 1.013072 3 10 ack 40 ------- 0 3.1 1.0 40 93
+ 1.014408 3 10 ack 40 ------- 0 3.1 1.0 39 92
- 1.020868 1 10 tcp 1040 ------- 0 1.0 3.1 43 75
r 1.022248 10 3 tcp 1040 ------- 0 1.0 3.1 41 73
h 1.022248 3 10 ack 40 ------- 0 3.1 1.0 41 94
+ 1.023072 3 10 ack 40 ------- 0 3.1 1.0 40 93
- 1.029396 1 10 tcp 1040 ------- 0 1.0 3.1 44 76
r 1.030776 10 3 tcp 1040 ------- 0 1.0 3.1 42 74
h 1.030776 3 10 ack 40 ------- 0 3.1 1.0 42 95
+ 1.032248 3 10 ack 40 ------- 0 3.1 1.0 41 94
- 1.037924 1 10 tcp 1040 ------- 0 1.0 3.1 45 77
r 1.039304 10 3 tcp 1040 ------- 0 1.0 3.1 43 75
h 1.039304 3 10 ack 40 ------- 0 3.1 1.0 43 96
+ 1.040776 3 10 ack 40 ------- 0 3.1 1.0 42 95
- 1.046452 1 10 tcp 1040 ------- 0 1.0 3.1 46 78
r 1.047832 10 3 tcp 1040 ------- 0 1.0 3.1 44 76
h 1.047832 3 10 ack 40 ------- 0 3.1 1.0 44 97
+ 1.049304 3 10 ack 40 ------- 0 3.1 1.0 43 96
- 1.05498 1 10 tcp 1040 ------- 0 1.0 3.1 47 79
r 1.05636 10 3 tcp 1040 ------- 0 1.0 3.1 45 77
h 1.05636 3 10 ack 40 ------- 0 3.1 1.0 45 98
+ 1.057832 3 10 ack 40 ------- 0 3.1 1.0 44 97
- 1.063508 1 10 tcp 1040 ------- 0 1.0 3.1 48 80
r 1.064888 10 3 tcp 1040 ------- 0 1.0 3.1 46 78
h 1.064888 3 10 ack 40 ------- 0 3.1 1.0 46 99
+ 1.06636 3 10 ack 40 ------- 0 3.1 1.0 45 98
- 1.072172 1 10 tcp 1040 ------- 0 1.0 3.1 49 81
r 1.073416 10 3 tcp 1040 ------- 0 1.0 3.1 47 79
h 1.073416 3 10 ack 40 ------- 0 3.1 1.0 47 100
+ 1.074888 3 10 ack 40 ------- 0 3.1 1.0 46 99
- 1.0807 1 10 tcp 1040 ------- 0 1.0 3.1 50 82
r 1.08208 10 3 tcp 1040 ------- 0 1.0 3.1 48 80
h 1.08208 3 10 ack 40 ------- 0 3.1 1.0 48 101
+ 1.083416 3 10 ack 40 ------- 0 3.1 1.0 47 100
- 1.089228 1 10 tcp 1040 ------- 0 1.0 3.1 51 87
r 1.090608 10 3 tcp 1040 ------- 0 1.0 3.1 49 81
h 1.090608 3 10 ack 40 ------- 0 3.1 1.0 49 102
+ 1.09208 3 10 ack 40 ------- 0 3.1 1.0 48 101
r 1.099136 10 3 tcp 1040 ------- 0 1.0 3.1 50 82
h 1.099136 3 10 ack 40 ------- 0 3.1 1.0 50 103
+ 1.100608 3 10 ack 40 ------- 0 3.1 1.0 49 102
r 1.107664 10 3 tcp 1040 ------- 0 1.0 3.1 51 87
h 1.107664 3 10 ack 40 ------- 0 3.1 1.0 51 104
+ 1.109136 3 10 ack 40 ------- 0 3.1 1.0 50 103
+ 1.117664 3 10 ack 40 ------- 0 3.1 1.0 51 104
- 1.11852 3 10 ack 40 ------- 0 3.1 1.0 33 85
- 1.119128 3 10 ack 40 ------- 0 3.1 1.0 34 86
- 1.119736 3 10 ack 40 ------- 0 3.1 1.0 35 88
- 1.120344 3 10 ack 40 ------- 0 3.1 1.0 36 89
- 1.120952 3 10 ack 40 ------- 0 3.1 1.0 37 90
- 1.12156 3 10 ack 40 ------- 0 3.1 1.0 38 91
- 1.122168 3 10 ack 40 ------- 0 3.1 1.0 39 92
- 1.122776 3 10 ack 40 ------- 0 3.1 1.0 40 93
- 1.123384 3 10 ack 40 ------- 0 3.1 1.0 41 94
- 1.123992 3 10 ack 40 ------- 0 3.1 1.0 42 95
- 1.1246 3 10 ack 40 ------- 0 3.1 1.0 43 96
- 1.125208 3 10 ack 40 ------- 0 3.1 1.0 44 97
- 1.125816 3 10 ack 40 ------- 0 3.1 1.0 45 98
- 1.126424 3 10 ack 40 ------- 0 3.1 1.0 46 99
- 1.127032 3 10 ack 40 ------- 0 3.1 1.0 47 100
- 1.12764 3 10 ack 40 ------- 0 3.1 1.0 48 101
- 1.128248 3 10 ack 40 ------- 0 3.1 1.0 49 102
r 1.128428 10 1 ack 40 ------- 0 3.1 1.0 32 84
h 1.128428 1 10 tcp 1040 ------- 0 1.0 3.1 52 105
- 1.128856 3 10 ack 40 ------- 0 3.1 1.0 50 103
r 1.129036 10 1 ack 40 ------- 0 3.1 1.0 33 85
h 1.129036 1 10 tcp 1040 ------- 0 1.0 3.1 53 106
- 1.129464 3 10 ack 40 ------- 0 3.1 1.0 51 104
r 1.129644 10 1 ack 40 ------- 0 3.1 1.0 34 86
h 1.129644 1 10 tcp 1040 ------- 0 1.0 3.1 54 107
r 1.130252 10 1 ack 40 ------- 0 3.1 1.0 35 88
h 1.130252 1 10 tcp 1040 ------- 0 1.0 3.1 55 108
r 1.13086 10 1 ack 40 ------- 0 3.1 1.0 36 89
h 1.13086 1 10 tcp 1040 ------- 0 1.0 3.1 56 109
r 1.131468 10 1 ack 40 ------- 0 3.1 1.0 37 90
h 1.131468 1 10 tcp 1040 ------- 0 1.0 3.1 57 110
r 1.132076 10 1 ack 40 ------- 0 3.1 1.0 38 91
h 1.132076 1 10 tcp 1040 ------- 0 1.0 3.1 58 111
r 1.132684 10 1 ack 40 ------- 0 3.1 1.0 39 92
h 1.132684 1 10 tcp 1040 ------- 0 1.0 3.1 59 112
r 1.133292 10 1 ack 40 ------- 0 3.1 1.0 40 93
h 1.133292 1 10 tcp 1040 ------- 0 1.0 3.1 60 113
r 1.1339 10 1 ack 40 ------- 0 3.1 1.0 41 94
h 1.1339 1 10 tcp 1040 ------- 0 1.0 3.1 61 114
r 1.134508 10 1 ack 40 ------- 0 3.1 1.0 42 95
h 1.134508 1 10 tcp 1040 ------- 0 1.0 3.1 62 115
r 1.135116 10 1 ack 40 ------- 0 3.1 1.0 43 96
h 1.135116 1 10 tcp 1040 ------- 0 1.0 3.1 63 116
r 1.135724 10 1 ack 40 ------- 0 3.1 1.0 44 97
h 1.135724 1 10 tcp 1040 ------- 0 1.0 3.1 64 117
r 1.136332 10 1 ack 40 ------- 0 3.1 1.0 45 98
h 1.136332 1 10 tcp 1040 ------- 0 1.0 3.1 65 118
r 1.13694 10 1 ack 40 ------- 0 3.1 1.0 46 99
h 1.13694 1 10 tcp 1040 ------- 0 1.0 3.1 66 119
r 1.137548 10 1 ack 40 ------- 0 3.1 1.0 47 100
h 1.137548 1 10 tcp 1040 ------- 0 1.0 3.1 67 120
r 1.138156 10 1 ack 40 ------- 0 3.1 1.0 48 101
h 1.138156 1 10 tcp 1040 ------- 0 1.0 3.1 68 121
+ 1.138428 1 10 tcp 1040 ------- 0 1.0 3.1 52 105
- 1.138428 1 10 tcp 1040 ------- 0 1.0 3.1 52 105
r 1.138764 10 1 ack 40 ------- 0 3.1 1.0 49 102
h 1.138764 1 10 tcp 1040 ------- 0 1.0 3.1 69 122
+ 1.139036 1 10 tcp 1040 ------- 0 1.0 3.1 53 106
r 1.139372 10 1 ack 40 ------- 0 3.1 1.0 50 103
h 1.139372 1 10 tcp 1040 ------- 0 1.0 3.1 70 123
+ 1.139644 1 10 tcp 1040 ------- 0 1.0 3.1 54 107
r 1.13998 10 1 ack 40 ------- 0 3.1 1.0 51 104
h 1.13998 1 10 tcp 1040 ------- 0 1.0 3.1 71 124
+ 1.140252 1 10 tcp 1040 ------- 0 1.0 3.1 55 108
+ 1.14086 1 10 tcp 1040 ------- 0 1.0 3.1 56 109
+ 1.141468 1 10 tcp 1040 ------- 0 1.0 3.1 57 110
+ 1.142076 1 10 tcp 1040 ------- 0 1.0 3.1 58 111
+ 1.142684 1 10 tcp 1040 ------- 0 1.0 3.1 59 112
+ 1.143292 1 10 tcp 1040 ------- 0 1.0 3.1 60 113
+ 1.1439 1 10 tcp 1040 ------- 0 1.0 3.1 61 114
+ 1.144508 1 10 tcp 1040 ------- 0 1.0 3.1 62 115
+ 1.145116 1 10 tcp 1040 ------- 0 1.0 3.1 63 116
+ 1.145724 1 10 tcp 1040 ------- 0 1.0 3.1 64 117
+ 1.146332 1 10 tcp 1040 ------- 0 1.0 3.1 65 118
+ 1.14694 1 10 tcp 1040 ------- 0 1.0 3.1 66 119
- 1.146956 1 10 tcp 1040 ------- 0 1.0 3.1 53 106
+ 1.147548 1 10 tcp 1040 ------- 0 1.0 3.1 67 120
+ 1.148156 1 10 tcp 1040 ------- 0 1.0 3.1 68 121
+ 1.148764 1 10 tcp 1040 ------- 0 1.0 3.1 69 122
+ 1.149372 1 10 tcp 1040 ------- 0 1.0 3.1 70 123
+ 1.14998 1 10 tcp 1040 ------- 0 1.0 3.1 71 124
- 1.155484 1 10 tcp 1040 ------- 0 1.0 3.1 54 107
r 1.156864 10 3 tcp 1040 ------- 0 1.0 3.1 52 105
h 1.156864 3 10 ack 40 ------- 0 3.1 1.0 52 125
- 1.164012 1 10 tcp 1040 ------- 0 1.0 3.1 55 108
r 1.165392 10 3 tcp 1040 ------- 0 1.0 3.1 53 106
h 1.165392 3 10 ack 40 ------- 0 3.1 1.0 53 126
+ 1.166864 3 10 ack 40 ------- 0 3.1 1.0 52 125
- 1.166864 3 10 ack 40 ------- 0 3.1 1.0 52 125
- 1.17254 1 10 tcp 1040 ------- 0 1.0 3.1 56 109
r 1.17392 10 3 tcp 1040 ------- 0 1.0 3.1 54 107
h 1.17392 3 10 ack 40 ------- 0 3.1 1.0 54 127
+ 1.175392 3 10 ack 40 ------- 0 3.1 1.0 53 126
- 1.181204 1 10 tcp 1040 ------- 0 1.0 3.1 57 110
r 1.182448 10 3 tcp 1040 ------- 0 1.0 3.1 55 108
h 1.182448 3 10 ack 40 ------- 0 3.1 1.0 55 128
+ 1.18392 3 10 ack 40 ------- 0 3.1 1.0 54 127
- 1.19038 1 10 tcp 1040 ------- 0 1.0 3.1 58 111
r 1.191112 10 3 tcp 1040 ------- 0 1.0 3.1 56 109
h 1.191112 3 10 ack 40 ------- 0 3.1 1.0 56 129
+ 1.192448 3 10 ack 40 ------- 0 3.1 1.0 55 128
- 1.199556 1 10 tcp 1040 ------- 0 1.0 3.1 59 112
r 1.200288 10 3 tcp 1040 ------- 0 1.0 3.1 57 110
h 1.200288 3 10 ack 40 ------- 0 3.1 1.0 57 130
+ 1.201112 3 10 ack 40 ------- 0 3.1 1.0 56 129
- 1.208732 1 10 tcp 1040 ------- 0 1.0 3.1 60 113
r 1.209464 10 3 tcp 1040 ------- 0 1.0 3.1 58 111
h 1.209464 3 10 ack 40 ------- 0 3.1 1.0 58 131
+ 1.210288 3 10 ack 40 ------- 0 3.1 1.0 57 130
- 1.217396 1 10 tcp 1040 ------- 0 1.0 3.1 61 114
r 1.21864 10 3 tcp 1040 ------- 0 1.0 3.1 59 112
h 1.21864 3 10 ack 40 ------- 0 3.1 1.0 59 132
+ 1.219464 3 10 ack 40 ------- 0 3.1 1.0 58 131
- 1.226572 1 10 tcp 1040 ------- 0 1.0 3.1 62 115
r 1.227304 10 3 tcp 1040 ------- 0 1.0 3.1 60 113
h 1.227304 3 10 ack 40 ------- 0 3.1 1.0 60 133
+ 1.22864 3 10 ack 40 ------- 0 3.1 1.0 59 132
- 1.2351 1 10 tcp 1040 ------- 0 1.0 3.1 63 116
r 1.23648 10 3 tcp 1040 ------- 0 1.0 3.1 61 114
h 1.23648 3 10 ack 40 ------- 0 3.1 1.0 61 134
+ 1.237304 3 10 ack 40 ------- 0 3.1 1.0 60 133
- 1.243628 1 10 tcp 1040 ------- 0 1.0 3.1 64 117
r 1.245008 10 3 tcp 1040 ------- 0 1.0 3.1 62 115
h 1.245008 3 10 ack 40 ------- 0 3.1 1.0 62 135
+ 1.24648 3 10 ack 40 ------- 0 3.1 1.0 61 134
- 1.252292 1 10 tcp 1040 ------- 0 1.0 3.1 65 118
r 1.253536 10 3 tcp 1040 ------- 0 1.0 3.1 63 116
h 1.253536 3 10 ack 40 ------- 0 3.1 1.0 63 136
+ 1.255008 3 10 ack 40 ------- 0 3.1 1.0 62 135
- 1.26082 1 10 tcp 1040 ------- 0 1.0 3.1 66 119
r 1.2622 10 3 tcp 1040 ------- 0 1.0 3.1 64 117
h 1.2622 3 10 ack 40 ------- 0 3.1 1.0 64 137
+ 1.263536 3 10 ack 40 ------- 0 3.1 1.0 63 136
- 1.269484 1 10 tcp 1040 ------- 0 1.0 3.1 67 120
r 1.270728 10 3 tcp 1040 ------- 0 1.0 3.1 65 118
h 1.270728 3 10 ack 40 ------- 0 3.1 1.0 65 138
+ 1.2722 3 10 ack 40 ------- 0 3.1 1.0 64 137
- 1.278012 1 10 tcp 1040 ------- 0 1.0 3.1 68 121
r 1.279392 10 3 tcp 1040 ------- 0 1.0 3.1 66 119
h 1.279392 3 10 ack 40 ------- 0 3.1 1.0 66 139
+ 1.280728 3 10 ack 40 ------- 0 3.1 1.0 65 138
- 1.28654 1 10 tcp 1040 ------- 0 1.0 3.1 69 122
r 1.28792 10 3 tcp 1040 ------- 0 1.0 3.1 67 120
h 1.28792 3 10 ack 40 ------- 0 3.1 1.0 67 140
+ 1.289392 3 10 ack 40 ------- 0 3.1 1.0 66 139
- 1.295204 1 10 tcp 1040 ------- 0 1.0 3.1 70 123
r 1.296448 10 3 tcp 1040 ------- 0 1.0 3.1 68 121
h 1.296448 3 10 ack 40 ------- 0 3.1 1.0 68 141
+ 1.29792 3 10 ack 40 ------- 0 3.1 1.0 67 140
- 1.303732 1 10 tcp 1040 ------- 0 1.0 3.1 71 124
r 1.305112 10 3 tcp 1040 ------- 0 1.0 3.1 69 122
h 1.305112 3 10 ack 40 ------- 0 3.1 1.0 69 142
+ 1.306448 3 10 ack 40 ------- 0 3.1 1.0 68 141
r 1.31364 10 3 tcp 1040 ------- 0 1.0 3.1 70 123
h 1.31364 3 10 ack 40 ------- 0 3.1 1.0 70 143
+ 1.315112 3 10 ack 40 ------- 0 3.1 1.0 69 142
r 1.322168 10 3 tcp 1040 ------- 0 1.0 3.1 71 124
h 1.322168 3 10 ack 40 ------- 0 3.1 1.0 71 144
+ 1.32364 3 10 ack 40 ------- 0 3.1 1.0 70 143
+ 1.332168 3 10 ack 40 ------- 0 3.1 1.0 71 144
r 1.398908 10 3 tcp 40 ------- 0 0.0 3.0 0 42
h 1.398908 3 10 ack 40 ------- 0 3.0 0.0 0 145
+ 1.408908 3 10 ack 40 ------- 0 3.0 0.0 0 145
- 1.414256 3 10 ack 40 ------- 0 3.1 1.0 53 126
- 1.414864 3 10 ack 40 ------- 0 3.1 1.0 54 127
- 1.415472 3 10 ack 40 ------- 0 3.1 1.0 55 128
- 1.41608 3 10 ack 40 ------- 0 3.1 1.0 56 129
- 1.416688 3 10 ack 40 ------- 0 3.1 1.0 57 130
- 1.417296 3 10 ack 40 ------- 0 3.1 1.0 58 131
- 1.417904 3 10 ack 40 ------- 0 3.1 1.0 59 132
- 1.418512 3 10 ack 40 ------- 0 3.1 1.0 60 133
- 1.41912 3 10 ack 40 ------- 0 3.1 1.0 61 134
- 1.419728 3 10 ack 40 ------- 0 3.1 1.0 62 135
- 1.420336 3 10 ack 40 ------- 0 3.1 1.0 63 136
- 1.420944 3 10 ack 40 ------- 0 3.1 1.0 64 137
- 1.421552 3 10 ack 40 ------- 0 3.1 1.0 65 138
- 1.42216 3 10 ack 40 ------- 0 3.1 1.0 66 139
- 1.422768 3 10 ack 40 ------- 0 3.1 1.0 67 140
- 1.423376 3 10 ack 40 ------- 0 3.1 1.0 68 141
- 1.423984 3 10 ack 40 ------- 0 3.1 1.0 69 142
r 1.424164 10 1 ack 40 ------- 0 3.1 1.0 52 125
h 1.424164 1 10 tcp 1040 ------- 0 1.0 3.1 72 146
- 1.424592 3 10 ack 40 ------- 0 3.1 1.0 70 143
r 1.424772 10 1 ack 40 ------- 0 3.1 1.0 53 126
h 1.424772 1 10 tcp 1040 ------- 0 1.0 3.1 73 147
- 1.4252 3 10 ack 40 ------- 0 3.1 1.0 71 144
r 1.42538 10 1 ack 40 ------- 0 3.1 1.0 54 127
h 1.42538 1 10 tcp 1040 ------- 0 1.0 3.1 74 148
- 1.425808 3 10 ack 40 ------- 0 3.0 0.0 0 145
r 1.425988 10 1 ack 40 ------- 0 3.1 1.0 55 128
h 1.425988 1 10 tcp 1040 ------- 0 1.0 3.1 75 149
r 1.426596 10 1 ack 40 ------- 0 3.1 1.0 56 129
h 1.426596 1 10 tcp 1040 ------- 0 1.0 3.1 76 150
r 1.427204 10 1 ack 40 ------- 0 3.1 1.0 57 130
h 1.427204 1 10 tcp 1040 ------- 0 1.0 3.1 77 151
r 1.427812 10 1 ack 40 ------- 0 3.1 1.0 58 131
h 1.427812 1 10 tcp 1040 ------- 0 1.0 3.1 78 152
r 1.42842 10 1 ack 40 ------- 0 3.1 1.0 59 132
h 1.42842 1 10 tcp 1040 ------- 0 1.0 3.1 79 153
r 1.429028 10 1 ack 40 ------- 0 3.1 1.0 60 133
h 1.429028 1 10 tcp 1040 ------- 0 1.0 3.1 80 154
r 1.429636 10 1 ack 40 ------- 0 3.1 1.0 61 134
h 1.429636 1 10 tcp 1040 ------- 0 1.0 3.1 81 155
r 1.430244 10 1 ack 40 ------- 0 3.1 1.0 62 135
h 1.430244 1 10 tcp 1040 ------- 0 1.0 3.1 82 156
r 1.430852 10 1 ack 40 ------- 0 3.1 1.0 63 136
h 1.430852 1 10 tcp 1040 ------- 0 1.0 3.1 83 157
r 1.43146 10 1 ack 40 ------- 0 3.1 1.0 64 137
h 1.43146 1 10 tcp 1040 ------- 0 1.0 3.1 84 158
r 1.432068 10 1 ack 40 ------- 0 3.1 1.0 65 138
h 1.432068 1 10 tcp 1040 ------- 0 1.0 3.1 85 159
r 1.432676 10 1 ack 40 ------- 0 3.1 1.0 66 139
h 1.432676 1 10 tcp 1040 ------- 0 1.0 3.1 86 160
r 1.433284 10 1 ack 40 ------- 0 3.1 1.0 67 140
h 1.433284 1 10 tcp 1040 ------- 0 1.0 3.1 87 161
r 1.433892 10 1 ack 40 ------- 0 3.1 1.0 68 141
h 1.433892 1 10 tcp 1040 ------- 0 1.0 3.1 88 162
+ 1.434164 1 10 tcp 1040 ------- 0 1.0 3.1 72 146
- 1.434164 1 10 tcp 1040 ------- 0 1.0 3.1 72 146
r 1.4345 10 1 ack 40 ------- 0 3.1 1.0 69 142
h 1.4345 1 10 tcp 1040 ------- 0 1.0 3.1 89 163
+ 1.434772 1 10 tcp 1040 ------- 0 1.0 3.1 73 147
r 1.435108 10 1 ack 40 ------- 0 3.1 1.0 70 143
h 1.435108 1 10 tcp 1040 ------- 0 1.0 3.1 90 164
+ 1.43538 1 10 tcp 1040 ------- 0 1.0 3.1 74 148
r 1.435716 10 1 ack 40 ------- 0 3.1 1.0 71 144
h 1.435716 1 10 tcp 1040 ------- 0 1.0 3.1 91 165
+ 1.435988 1 10 tcp 1040 ------- 0 1.0 3.1 75 149
r 1.436324 10 0 ack 40 ------- 0 3.0 0.0 0 145
h 1.436324 0 10 tcp 1040 ------- 0 0.0 3.0 1 166
h 1.436324 0 10 tcp 1040 ------- 0 0.0 3.0 2 167
+ 1.436596 1 10 tcp 1040 ------- 0 1.0 3.1 76 150
+ 1.437204 1 10 tcp 1040 ------- 0 1.0 3.1 77 151
+ 1.437812 1 10 tcp 1040 ------- 0 1.0 3.1 78 152
+ 1.43842 1 10 tcp 1040 ------- 0 1.0 3.1 79 153
+ 1.439028 1 10 tcp 1040 ------- 0 1.0 3.1 80 154
+ 1.439636 1 10 tcp 1040 ------- 0 1.0 3.1 81 155
+ 1.440244 1 10 tcp 1040 ------- 0 1.0 3.1 82 156
+ 1.440852 1 10 tcp 1040 ------- 0 1.0 3.1 83 157
+ 1.44146 1 10 tcp 1040 ------- 0 1.0 3.1 84 158
+ 1.442068 1 10 tcp 1040 ------- 0 1.0 3.1 85 159
+ 1.442676 1 10 tcp 1040 ------- 0 1.0 3.1 86 160
- 1.442692 1 10 tcp 1040 ------- 0 1.0 3.1 73 147
+ 1.443284 1 10 tcp 1040 ------- 0 1.0 3.1 87 161
+ 1.443892 1 10 tcp 1040 ------- 0 1.0 3.1 88 162
+ 1.4445 1 10 tcp 1040 ------- 0 1.0 3.1 89 163