V -t * -v 1.0a5 -a 0
A -t * -n 1 -p 0 -o 0x7fffffff -c 30 -a 1
A -t * -h 1 -m 1073741823 -s 0
n -t * -a 8 -s 8 -S UP -v circle -c black -i black
n -t * -a 4 -s 4 -S UP -v circle -c black -i black
n -t * -a 0 -s 0 -S UP -v circle -c black -i black
n -t * -a 9 -s 9 -S UP -v circle -c black -i black
n -t * -a 5 -s 5 -S UP -v circle -c black -i black
n -t * -a 1 -s 1 -S UP -v circle -c black -i black
n -t * -a 6 -s 6 -S UP -v circle -c black -i black
n -t * -a 2 -s 2 -S UP -v circle -c black -i black
n -t * -a 7 -s 7 -S UP -v circle -c black -i black
n -t * -a 3 -s 3 -S UP -v circle -c black -i black
X -t * -n 10 -r 1Mb -D 10ms -o left
L -t * -s 10 -d 0 -o up
L -t * -s 10 -d 1 -o down
L -t * -s 10 -d 2 -o up
L -t * -s 10 -d 3 -o down
L -t * -s 10 -d 4 -o up
L -t * -s 10 -d 5 -o down
L -t * -s 10 -d 6 -o up
L -t * -s 10 -d 7 -o down
L -t * -s 10 -d 8 -o up
L -t * -s 10 -d 9 -o down
h -t 0.5 -s 0 -d 10 -p tcp -e 40 -c 0 -i 0 -a 0 -x {0.0 3.0 0 ------- null}
+ -t 0.51 -s 0 -d 10 -p tcp -e 40 -c 0 -i 0 -a 0 -x {0.0 3.0 0 ------- null}
- -t 0.51 -s 0 -d 10 -p tcp -e 40 -c 0 -i 0 -a 0 -x {0.0 3.0 0 ------- null}
h -t 0.51 -s 0 -d 10 -p tcp -e 40 -c 0 -i 0 -a 0 -x {0.0 3.0 -1 ------- null}
r -t 0.520516 -s 10 -d 3 -p tcp -e 40 -c 0 -i 0 -a 0 -x {0.0 3.0 0 ------- null}
h -t 0.520516 -s 3 -d 10 -p ack -e 40 -c 0 -i 1 -a 0 -x {3.0 0.0 0 ------- null}
+ -t 0.530516 -s 3 -d 10 -p ack -e 40 -c 0 -i 1 -a 0 -x {3.0 0.0 0 ------- null}
- -t 0.530516 -s 3 -d 10 -p ack -e 40 -c 0 -i 1 -a 0 -x {3.0 0.0 0 ------- null}
h -t 0.530516 -s 3 -d 10 -p ack -e 40 -c 0 -i 1 -a 0 -x {3.0 0.0 -1 ------- null}
r -t 0.541032 -s 10 -d 0 -p ack -e 40 -c 0 -i 1 -a 0 -x {3.0 0.0 0 ------- null}
h -t 0.541032 -s 0 -d 10 -p tcp -e 1040 -c 0 -i 2 -a 0 -x {0.0 3.0 1 ------- null}
h -t 0.541032 -s 0 -d 10 -p tcp -e 1040 -c 0 -i 3 -a 0 -x {0.0 3.0 2 ------- null}
+ -t 0.551032 -s 0 -d 10 -p tcp -e 1040 -c 0 -i 2 -a 0 -x {0.0 3.0 1 ------- null}
- -t 0.551032 -s 0 -d 10 -p tcp -e 1040 -c 0 -i 2 -a 0 -x {0.0 3.0 1 ------- null}
h -t 0.551032 -s 0 -d 10 -p tcp -e 1040 -c 0 -i 2 -a 0 -x {0.0 3.0 -1 ------- null}
+ -t 0.551032 -s 0 -d 10 -p tcp -e 1040 -c 0 -i 3 -a 0 -x {0.0 3.0 2 ------- null}
- -t 0.55956 -s 0 -d 10 -p tcp -e 1040 -c 0 -i 3 -a 0 -x {0.0 3.0 2 ------- null}
h -t 0.55956 -s 0 -d 10 -p tcp -e 1040 -c 0 -i 3 -a 0 -x {0.0 3.0 -1 ------- null}
r -t 0.569468 -s 10 -d 3 -p tcp -e 1040 -c 0 -i 2 -a 0 -x {0.0 3.0 1 ------- null}
h -t 0.569468 -s 3 -d 10 -p ack -e 40 -c 0 -i 4 -a 0 -x {3.0 0.0 1 ------- null}
r -t 0.577996 -s 10 -d 3 -p tcp -e 1040 -c 0 -i 3 -a 0 -x {0.0 3.0 2 ------- null}
h -t 0.577996 -s 3 -d 10 -p ack -e 40 -c 0 -i 5 -a 0 -x {3.0 0.0 2 ------- null}
+ -t 0.579468 -s 3 -d 10 -p ack -e 40 -c 0 -i 4 -a 0 -x {3.0 0.0 1 ------- null}
- -t 0.579468 -s 3 -d 10 -p ack -e 40 -c 0 -i 4 -a 0 -x {3.0 0.0 1 ------- null}
h -t 0.579468 -s 3 -d 10 -p ack -e 40 -c 0 -i 4 -a 0 -x {3.0 0.0 -1 ------- null}
+ -t 0.587996 -s 3 -d 10 -p ack -e 40 -c 0 -i 5 -a 0 -x {3.0 0.0 2 ------- null}
- -t 0.587996 -s 3 -d 10 -p ack -e 40 -c 0 -i 5 -a 0 -x {3.0 0.0 2 ------- null}
h -t 0.587996 -s 3 -d 10 -p ack -e 40 -c 0 -i 5 -a 0 -x {3.0 0.0 -1 ------- null}
r -t 0.589984 -s 10 -d 0 -p ack -e 40 -c 0 -i 4 -a 0 -x {3.0 0.0 1 ------- null}
h -t 0.589984 -s 0 -d 10 -p tcp -e 1040 -c 0 -i 6 -a 0 -x {0.0 3.0 3 ------- null}
h -t 0.589984 -s 0 -d 10 -p tcp -e 1040 -c 0 -i 7 -a 0 -x {0.0 3.0 4 ------- null}
r -t 0.598512 -s 10 -d 0 -p ack -e 40 -c 0 -i 5 -a 0 -x {3.0 0.0 2 ------- null}
h -t 0.598512 -s 0 -d 10 -p tcp -e 1040 -c 0 -i 8 -a 0 -x {0.0 3.0 5 ------- null}
h -t 0.598512 -s 0 -d 10 -p tcp -e 1040 -c 0 -i 9 -a 0 -x {0.0 3.0 6 ------- null}
+ -t 0.599984 -s 0 -d 10 -p tcp -e 1040 -c 0 -i 6 -a 0 -x {0.0 3.0 3 ------- null}
- -t 0.599984 -s 0 -d 10 -p tcp -e 1040 -c 0 -i 6 -a 0 -x {0.0 3.0 3 ------- null}
h -t 0.599984 -s 0 -d 10 -p tcp -e 1040 -c 0 -i 6 -a 0 -x {0.0 3.0 -1 ------- null}
+ -t 0.599984 -s 0 -d 10 -p tcp -e 1040 -c 0 -i 7 -a 0 -x {0.0 3.0 4 ------- null}
+ -t 0.608512 -s 0 -d 10 -p tcp -e 1040 -c 0 -i 8 -a 0 -x {0.0 3.0 5 ------- null}
+ -t 0.608512 -s 0 -d 10 -p tcp -e 1040 -c 0 -i 9 -a 0 -x {0.0 3.0 6 ------- null}
- -t 0.608512 -s 0 -d 10 -p tcp -e 1040 -c 0 -i 7 -a 0 -x {0.0 3.0 4 ------- null}
h -t 0.608512 -s 0 -d 10 -p tcp -e 1040 -c 0 -i 7 -a 0 -x {0.0 3.0 -1 ------- null}
- -t 0.61704 -s 0 -d 10 -p tcp -e 1040 -c 0 -i 8 -a 0 -x {0.0 3.0 5 ------- null}
h -t 0.61704 -s 0 -d 10 -p tcp -e 1040 -c 0 -i 8 -a 0 -x {0.0 3.0 -1 ------- null}
r -t 0.61842 -s 10 -d 3 -p tcp -e 1040 -c 0 -i 6 -a 0 -x {0.0 3.0 3 ------- null}
h -t 0.61842 -s 3 -d 10 -p ack -e 40 -c 0 -i 10 -a 0 -x {3.0 0.0 3 ------- null}
- -t 0.625568 -s 0 -d 10 -p tcp -e 1040 -c 0 -i 9 -a 0 -x {0.0 3.0 6 ------- null}
h -t 0.625568 -s 0 -d 10 -p tcp -e 1040 -c 0 -i 9 -a 0 -x {0.0 3.0 -1 ------- null}
r -t 0.626948 -s 10 -d 3 -p tcp -e 1040 -c 0 -i 7 -a 0 -x {0.0 3.0 4 ------- null}
h -t 0.626948 -s 3 -d 10 -p ack -e 40 -c 0 -i 11 -a 0 -x {3.0 0.0 4 ------- null}
+ -t 0.62842 -s 3 -d 10 -p ack -e 40 -c 0 -i 10 -a 0 -x {3.0 0.0 3 ------- null}
- -t 0.62842 -s 3 -d 10 -p ack -e 40 -c 0 -i 10 -a 0 -x {3.0 0.0 3 ------- null}
h -t 0.62842 -s 3 -d 10 -p ack -e 40 -c 0 -i 10 -a 0 -x {3.0 0.0 -1 ------- null}
r -t 0.635476 -s 10 -d 3 -p tcp -e 1040 -c 0 -i 8 -a 0 -x {0.0 3.0 5 ------- null}
h -t 0.635476 -s 3 -d 10 -p ack -e 40 -c 0 -i 12 -a 0 -x {3.0 0.0 5 ------- null}
+ -t 0.636948 -s 3 -d 10 -p ack -e 40 -c 0 -i 11 -a 0 -x {3.0 0.0 4 ------- null}
- -t 0.636948 -s 3 -d 10 -p ack -e 40 -c 0 -i 11 -a 0 -x {3.0 0.0 4 ------- null}
h -t 0.636948 -s 3 -d 10 -p ack -e 40 -c 0 -i 11 -a 0 -x {3.0 0.0 -1 ------- null}
r -t 0.644004 -s 10 -d 3 -p tcp -e 1040 -c 0 -i 9 -a 0 -x {0.0 3.0 6 ------- null}
h -t 0.644004 -s 3 -d 10 -p ack -e 40 -c 0 -i 13 -a 0 -x {3.0 0.0 6 ------- null}
r -t 0.644616 -s 10 -d 0 -p ack -e 40 -c 0 -i 10 -a 0 -x {3.0 0.0 3 ------- null}
h -t 0.644616 -s 0 -d 10 -p tcp -e 1040 -c 0 -i 14 -a 0 -x {0.0 3.0 7 ------- null}
h -t 0.644616 -s 0 -d 10 -p tcp -e 1040 -c 0 -i 15 -a 0 -x {0.0 3.0 8 ------- null}
+ -t 0.645476 -s 3 -d 10 -p ack -e 40 -c 0 -i 12 -a 0 -x {3.0 0.0 5 ------- null}
- -t 0.645476 -s 3 -d 10 -p ack -e 40 -c 0 -i 12 -a 0 -x {3.0 0.0 5 ------- null}
h -t 0.645476 -s 3 -d 10 -p ack -e 40 -c 0 -i 12 -a 0 -x {3.0 0.0 -1 ------- null}
r -t 0.647464 -s 10 -d 0 -p ack -e 40 -c 0 -i 11 -a 0 -x {3.0 0.0 4 ------- null}
h -t 0.647464 -s 0 -d 10 -p tcp -e 1040 -c 0 -i 16 -a 0 -x {0.0 3.0 9 ------- null}
h -t 0.647464 -s 0 -d 10 -p tcp -e 1040 -c 0 -i 17 -a 0 -x {0.0 3.0 10 ------- null}
+ -t 0.654004 -s 3 -d 10 -p ack -e 40 -c 0 -i 13 -a 0 -x {3.0 0.0 6 ------- null}
- -t 0.654004 -s 3 -d 10 -p ack -e 40 -c 0 -i 13 -a 0 -x {3.0 0.0 6 ------- null}
h -t 0.654004 -s 3 -d 10 -p ack -e 40 -c 0 -i 13 -a 0 -x {3.0 0.0 -1 ------- null}
+ -t 0.654616 -s 0 -d 10 -p tcp -e 1040 -c 0 -i 14 -a 0 -x {0.0 3.0 7 ------- null}
- -t 0.654616 -s 0 -d 10 -p tcp -e 1040 -c 0 -i 14 -a 0 -x {0.0 3.0 7 ------- null}
h -t 0.654616 -s 0 -d 10 -p tcp -e 1040 -c 0 -i 14 -a 0 -x {0.0 3.0 -1 ------- null}
+ -t 0.654616 -s 0 -d 10 -p tcp -e 1040 -c 0 -i 15 -a 0 -x {0.0 3.0 8 ------- null}
r -t 0.655992 -s 10 -d 0 -p ack -e 40 -c 0 -i 12 -a 0 -x {3.0 0.0 5 ------- null}
h -t 0.655992 -s 0 -d 10 -p tcp -e 1040 -c 0 -i 18 -a 0 -x {0.0 3.0 11 ------- null}
h -t 0.655992 -s 0 -d 10 -p tcp -e 1040 -c 0 -i 19 -a 0 -x {0.0 3.0 12 ------- null}
+ -t 0.657464 -s 0 -d 10 -p tcp -e 1040 -c 0 -i 16 -a 0 -x {0.0 3.0 9 ------- null}
+ -t 0.657464 -s 0 -d 10 -p tcp -e 1040 -c 0 -i 17 -a 0 -x {0.0 3.0 10 ------- null}
- -t 0.663144 -s 0 -d 10 -p tcp -e 1040 -c 0 -i 15 -a 0 -x {0.0 3.0 8 ------- null}
h -t 0.663144 -s 0 -d 10 -p tcp -e 1040 -c 0 -i 15 -a 0 -x {0.0 3.0 -1 ------- null}
r -t 0.66452 -s 10 -d 0 -p ack -e 40 -c 0 -i 13 -a 0 -x {3.0 0.0 6 ------- null}
h -t 0.66452 -s 0 -d 10 -p tcp -e 1040 -c 0 -i 20 -a 0 -x {0.0 3.0 13 ------- null}
h -t 0.66452 -s 0 -d 10 -p tcp -e 1040 -c 0 -i 21 -a 0 -x {0.0 3.0 14 ------- null}
+ -t 0.665992 -s 0 -d 10 -p tcp -e 1040 -c 0 -i 18 -a 0 -x {0.0 3.0 11 ------- null}
+ -t 0.665992 -s 0 -d 10 -p tcp -e 1040 -c 0 -i 19 -a 0 -x {0.0 3.0 12 ------- null}
- -t 0.671672 -s 0 -d 10 -p tcp -e 1040 -c 0 -i 16 -a 0 -x {0.0 3.0 9 ------- null}
h -t 0.671672 -s 0 -d 10 -p tcp -e 1040 -c 0 -i 16 -a 0 -x {0.0 3.0 -1 ------- null}
r -t 0.673052 -s 10 -d 3 -p tcp -e 1040 -c 0 -i 14 -a 0 -x {0.0 3.0 7 ------- null}
h -t 0.673052 -s 3 -d 10 -p ack -e 40 -c 0 -i 22 -a 0 -x {3.0 0.0 7 ------- null}
+ -t 0.67452 -s 0 -d 10 -p tcp -e 1040 -c 0 -i 20 -a 0 -x {0.0 3.0 13 ------- null}
+ -t 0.67452 -s 0 -d 10 -p tcp -e 1040 -c 0 -i 21 -a 0 -x {0.0 3.0 14 ------- null}
- -t 0.6802 -s 0 -d 10 -p tcp -e 1040 -c 0 -i 17 -a 0 -x {0.0 3.0 10 ------- null}
h -t 0.6802 -s 0 -d 10 -p tcp -e 1040 -c 0 -i 17 -a 0 -x {0.0 3.0 -1 ------- null}
r -t 0.68158 -s 10 -d 3 -p tcp -e 1040 -c 0 -i 15 -a 0 -x {0.0 3.0 8 ------- null}
h -t 0.68158 -s 3 -d 10 -p ack -e 40 -c 0 -i 23 -a 0 -x {3.0 0.0 8 ------- null}
+ -t 0.683052 -s 3 -d 10 -p ack -e 40 -c 0 -i 22 -a 0 -x {3.0 0.0 7 ------- null}
- -t 0.683052 -s 3 -d 10 -p ack -e 40 -c 0 -i 22 -a 0 -x {3.0 0.0 7 ------- null}
h -t 0.683052 -s 3 -d 10 -p ack -e 40 -c 0 -i 22 -a 0 -x {3.0 0.0 -1 ------- null}
- -t 0.688728 -s 0 -d 10 -p tcp -e 1040 -c 0 -i 18 -a 0 -x {0.0 3.0 11 ------- null}
h -t 0.688728 -s 0 -d 10 -p tcp -e 1040 -c 0 -i 18 -a 0 -x {0.0 3.0 -1 ------- null}
r -t 0.690108 -s 10 -d 3 -p tcp -e 1040 -c 0 -i 16 -a 0 -x {0.0 3.0 9 ------- null}
h -t 0.690108 -s 3 -d 10 -p ack -e 40 -c 0 -i 24 -a 0 -x {3.0 0.0 9 ------- null}
+ -t 0.69158 -s 3 -d 10 -p ack -e 40 -c 0 -i 23 -a 0 -x {3.0 0.0 8 ------- null}
- -t 0.697392 -s 0 -d 10 -p tcp -e 1040 -c 0 -i 19 -a 0 -x {0.0 3.0 12 ------- null}
h -t 0.697392 -s 0 -d 10 -p tcp -e 1040 -c 0 -i 19 -a 0 -x {0.0 3.0 -1 ------- null}
r -t 0.698636 -s 10 -d 3 -p tcp -e 1040 -c 0 -i 17 -a 0 -x {0.0 3.0 10 ------- null}
h -t 0.698636 -s 3 -d 10 -p ack -e 40 -c 0 -i 25 -a 0 -x {3.0 0.0 10 ------- null}
+ -t 0.700108 -s 3 -d 10 -p ack -e 40 -c 0 -i 24 -a 0 -x {3.0 0.0 9 ------- null}
- -t 0.706568 -s 0 -d 10 -p tcp -e 1040 -c 0 -i 20 -a 0 -x {0.0 3.0 13 ------- null}
h -t 0.706568 -s 0 -d 10 -p tcp -e 1040 -c 0 -i 20 -a 0 -x {0.0 3.0 -1 ------- null}
r -t 0.7073 -s 10 -d 3 -p tcp -e 1040 -c 0 -i 18 -a 0 -x {0.0 3.0 11 ------- null}
h -t 0.7073 -s 3 -d 10 -p ack -e 40 -c 0 -i 26 -a 0 -x {3.0 0.0 11 ------- null}
+ -t 0.708636 -s 3 -d 10 -p ack -e 40 -c 0 -i 25 -a 0 -x {3.0 0.0 10 ------- null}
- -t 0.715232 -s 0 -d 10 -p tcp -e 1040 -c 0 -i 21 -a 0 -x {0.0 3.0 14 ------- null}
h -t 0.715232 -s 0 -d 10 -p tcp -e 1040 -c 0 -i 21 -a 0 -x {0.0 3.0 -1 ------- null}
r -t 0.716476 -s 10 -d 3 -p tcp -e 1040 -c 0 -i 19 -a 0 -x {0.0 3.0 12 ------- null}
h -t 0.716476 -s 3 -d 10 -p ack -e 40 -c 0 -i 27 -a 0 -x {3.0 0.0 12 ------- null}
+ -t 0.7173 -s 3 -d 10 -p ack -e 40 -c 0 -i 26 -a 0 -x {3.0 0.0 11 ------- null}
- -t 0.72502 -s 3 -d 10 -p ack -e 40 -c 0 -i 23 -a 0 -x {3.0 0.0 8 ------- null}
h -t 0.72502 -s 3 -d 10 -p ack -e 40 -c 0 -i 23 -a 0 -x {3.0 0.0 -1 ------- null}
r -t 0.72514 -s 10 -d 3 -p tcp -e 1040 -c 0 -i 20 -a 0 -x {0.0 3.0 13 ------- null}
h -t 0.72514 -s 3 -d 10 -p ack -e 40 -c 0 -i 28 -a 0 -x {3.0 0.0 13 ------- null}
- -t 0.725628 -s 3 -d 10 -p ack -e 40 -c 0 -i 24 -a 0 -x {3.0 0.0 9 ------- null}
h -t 0.725628 -s 3 -d 10 -p ack -e 40 -c 0 -i 24 -a 0 -x {3.0 0.0 -1 ------- null}
- -t 0.726236 -s 3 -d 10 -p ack -e 40 -c 0 -i 25 -a 0 -x {3.0 0.0 10 ------- null}
h -t 0.726236 -s 3 -d 10 -p ack -e 40 -c 0 -i 25 -a 0 -x {3.0 0.0 -1 ------- null}
+ -t 0.726476 -s 3 -d 10 -p ack -e 40 -c 0 -i 27 -a 0 -x {3.0 0.0 12 ------- null}
- -t 0.726843999999999 -s 3 -d 10 -p ack -e 40 -c 0 -i 26 -a 0 -x {3.0 0.0 11 ------- null}
h -t 0.726843999999999 -s 3 -d 10 -p ack -e 40 -c 0 -i 26 -a 0 -x {3.0 0.0 -1 ------- null}
- -t 0.727451999999999 -s 3 -d 10 -p ack -e 40 -c 0 -i 27 -a 0 -x {3.0 0.0 12 ------- null}
h -t 0.727451999999999 -s 3 -d 10 -p ack -e 40 -c 0 -i 27 -a 0 -x {3.0 0.0 -1 ------- null}
r -t 0.734316 -s 10 -d 3 -p tcp -e 1040 -c 0 -i 21 -a 0 -x {0.0 3.0 14 ------- null}
h -t 0.734316 -s 3 -d 10 -p ack -e 40 -c 0 -i 29 -a 0 -x {3.0 0.0 14 ------- null}
r -t 0.734928 -s 10 -d 0 -p ack -e 40 -c 0 -i 22 -a 0 -x {3.0 0.0 7 ------- null}
h -t 0.734928 -s 0 -d 10 -p tcp -e 1040 -c 0 -i 30 -a 0 -x {0.0 3.0 15 ------- null}
h -t 0.734928 -s 0 -d 10 -p tcp -e 1040 -c 0 -i 31 -a 0 -x {0.0 3.0 16 ------- null}
+ -t 0.73514 -s 3 -d 10 -p ack -e 40 -c 0 -i 28 -a 0 -x {3.0 0.0 13 ------- null}
- -t 0.73514 -s 3 -d 10 -p ack -e 40 -c 0 -i 28 -a 0 -x {3.0 0.0 13 ------- null}
h -t 0.73514 -s 3 -d 10 -p ack -e 40 -c 0 -i 28 -a 0 -x {3.0 0.0 -1 ------- null}
r -t 0.735536 -s 10 -d 0 -p ack -e 40 -c 0 -i 23 -a 0 -x {3.0 0.0 8 ------- null}
h -t 0.735536 -s 0 -d 10 -p tcp -e 1040 -c 0 -i 32 -a 0 -x {0.0 3.0 17 ------- null}
h -t 0.735536 -s 0 -d 10 -p tcp -e 1040 -c 0 -i 33 -a 0 -x {0.0 3.0 18 ------- null}
r -t 0.736144 -s 10 -d 0 -p ack -e 40 -c 0 -i 24 -a 0 -x {3.0 0.0 9 ------- null}
h -t 0.736144 -s 0 -d 10 -p tcp -e 1040 -c 0 -i 34 -a 0 -x {0.0 3.0 19 ------- null}
h -t 0.736144 -s 0 -d 10 -p tcp -e 1040 -c 0 -i 35 -a 0 -x {0.0 3.0 20 ------- null}
r -t 0.736752 -s 10 -d 0 -p ack -e 40 -c 0 -i 25 -a 0 -x {3.0 0.0 10 ------- null}
h -t 0.736752 -s 0 -d 10 -p tcp -e 1040 -c 0 -i 36 -a 0 -x {0.0 3.0 21 ------- null}
h -t 0.736752 -s 0 -d 10 -p tcp -e 1040 -c 0 -i 37 -a 0 -x {0.0 3.0 22 ------- null}
r -t 0.737359999999999 -s 10 -d 0 -p ack -e 40 -c 0 -i 26 -a 0 -x {3.0 0.0 11 ------- null}
h -t 0.737359999999999 -s 0 -d 10 -p tcp -e 1040 -c 0 -i 38 -a 0 -x {0.0 3.0 23 ------- null}
h -t 0.737359999999999 -s 0 -d 10 -p tcp -e 1040 -c 0 -i 39 -a 0 -x {0.0 3.0 24 ------- null}
r -t 0.737967999999999 -s 10 -d 0 -p ack -e 40 -c 0 -i 27 -a 0 -x {3.0 0.0 12 ------- null}
h -t 0.737967999999999 -s 0 -d 10 -p tcp -e 1040 -c 0 -i 40 -a 0 -x {0.0 3.0 25 ------- null}
h -t 0.737967999999999 -s 0 -d 10 -p tcp -e 1040 -c 0 -i 41 -a 0 -x {0.0 3.0 26 ------- null}
+ -t 0.744316 -s 3 -d 10 -p ack -e 40 -c 0 -i 29 -a 0 -x {3.0 0.0 14 ------- null}
- -t 0.744316 -s 3 -d 10 -p ack -e 40 -c 0 -i 29 -a 0 -x {3.0 0.0 14 ------- null}
h -t 0.744316 -s 3 -d 10 -p ack -e 40 -c 0 -i 29 -a 0 -x {3.0 0.0 -1 ------- null}
+ -t 0.744928 -s 0 -d 10 -p tcp -e 1040 -c 0 -i 30 -a 0 -x {0.0 3.0 15 ------- null}
- -t 0.744928 -s 0 -d 10 -p tcp -e 1040 -c 0 -i 30 -a 0 -x {0.0 3.0 15 ------- null}
h -t 0.744928 -s 0 -d 10 -p tcp -e 1040 -c 0 -i 30 -a 0 -x {0.0 3.0 -1 ------- null}
+ -t 0.744928 -s 0 -d 10 -p tcp -e 1040 -c 0 -i 31 -a 0 -x {0.0 3.0 16 ------- null}
+ -t 0.745536 -s 0 -d 10 -p tcp -e 1040 -c 0 -i 32 -a 0 -x {0.0 3.0 17 ------- null}
+ -t 0.745536 -s 0 -d 10 -p tcp -e 1040 -c 0 -i 33 -a 0 -x {0.0 3.0 18 ------- null}
r -t 0.745656 -s 10 -d 0 -p ack -e 40 -c 0 -i 28 -a 0 -x {3.0 0.0 13 ------- null}
h -t 0.745656 -s 0 -d 10 -p tcp -e 1040 -c 0 -i 42 -a 0 -x {0.0 3.0 27 ------- null}
h -t 0.745656 -s 0 -d 10 -p tcp -e 1040 -c 0 -i 43 -a 0 -x {0.0 3.0 28 ------- null}
+ -t 0.746144 -s 0 -d 10 -p tcp -e 1040 -c 0 -i 34 -a 0 -x {0.0 3.0 19 ------- null}
+ -t 0.746144 -s 0 -d 10 -p tcp -e 1040 -c 0 -i 35 -a 0 -x {0.0 3.0 20 ------- null}
+ -t 0.746752 -s 0 -d 10 -p tcp -e 1040 -c 0 -i 36 -a 0 -x {0.0 3.0 21 ------- null}
+ -t 0.746752 -s 0 -d 10 -p tcp -e 1040 -c 0 -i 37 -a 0 -x {0.0 3.0 22 ------- null}
+ -t 0.747359999999999 -s 0 -d 10 -p tcp -e 1040 -c 0 -i 38 -a 0 -x {0.0 3.0 23 ------- null}
+ -t 0.747359999999999 -s 0 -d 10 -p tcp -e 1040 -c 0 -i 39 -a 0 -x {0.0 3.0 24 ------- null}
+ -t 0.747967999999999 -s 0 -d 10 -p tcp -e 1040 -c 0 -i 40 -a 0 -x {0.0 3.0 25 ------- null}
+ -t 0.747967999999999 -s 0 -d 10 -p tcp -e 1040 -c 0 -i 41 -a 0 -x {0.0 3.0 26 ------- null}
- -t 0.753456 -s 0 -d 10 -p tcp -e 1040 -c 0 -i 31 -a 0 -x {0.0 3.0 16 ------- null}
h -t 0.753456 -s 0 -d 10 -p tcp -e 1040 -c 0 -i 31 -a 0 -x {0.0 3.0 -1 ------- null}
r -t 0.754832 -s 10 -d 0 -p ack -e 40 -c 0 -i 29 -a 0 -x {3.0 0.0 14 ------- null}
h -t 0.754832 -s 0 -d 10 -p tcp -e 1040 -c 0 -i 44 -a 0 -x {0.0 3.0 29 ------- null}
h -t 0.754832 -s 0 -d 10 -p tcp -e 1040 -c 0 -i 45 -a 0 -x {0.0 3.0 30 ------- null}
+ -t 0.755656 -s 0 -d 10 -p tcp -e 1040 -c 0 -i 42 -a 0 -x {0.0 3.0 27 ------- null}
+ -t 0.755656 -s 0 -d 10 -p tcp -e 1040 -c 0 -i 43 -a 0 -x {0.0 3.0 28 ------- null}
h -t 0.759035013091796 -s 1 -d 10 -p tcp -e 40 -c 0 -i 46 -a 0 -x {1.0 3.1 0 ------- null}
- -t 0.761984 -s 0 -d 10 -p tcp -e 1040 -c 0 -i 32 -a 0 -x {0.0 3.0 17 ------- null}
h -t 0.761984 -s 0 -d 10 -p tcp -e 1040 -c 0 -i 32 -a 0 -x {0.0 3.0 -1 ------- null}
r -t 0.763364 -s 10 -d 3 -p tcp -e 1040 -c 0 -i 30 -a 0 -x {0.0 3.0 15 ------- null}
h -t 0.763364 -s 3 -d 10 -p ack -e 40 -c 0 -i 47 -a 0 -x {3.0 0.0 15 ------- null}
+ -t 0.764832 -s 0 -d 10 -p tcp -e 1040 -c 0 -i 44 -a 0 -x {0.0 3.0 29 ------- null}
+ -t 0.764832 -s 0 -d 10 -p tcp -e 1040 -c 0 -i 45 -a 0 -x {0.0 3.0 30 ------- null}
+ -t 0.769035013091796 -s 1 -d 10 -p tcp -e 40 -c 0 -i 46 -a 0 -x {1.0 3.1 0 ------- null}
- -t 0.769035013091796 -s 1 -d 10 -p tcp -e 40 -c 0 -i 46 -a 0 -x {1.0 3.1 0 ------- null}
h -t 0.769035013091796 -s 1 -d 10 -p tcp -e 40 -c 0 -i 46 -a 0 -x {1.0 3.1 -1 ------- null}
- -t 0.770512 -s 0 -d 10 -p tcp -e 1040 -c 0 -i 33 -a 0 -x {0.0 3.0 18 ------- null}
h -t 0.770512 -s 0 -d 10 -p tcp -e 1040 -c 0 -i 33 -a 0 -x {0.0 3.0 -1 ------- null}
r -t 0.771892 -s 10 -d 3 -p tcp -e 1040 -c 0 -i 31 -a 0 -x {0.0 3.0 16 ------- null}
h -t 0.771892 -s 3 -d 10 -p ack -e 40 -c 0 -i 48 -a 0 -x {3.0 0.0 16 ------- null}
+ -t 0.773364 -s 3 -d 10 -p ack -e 40 -c 0 -i 47 -a 0 -x {3.0 0.0 15 ------- null}
- -t 0.773364 -s 3 -d 10 -p ack -e 40 -c 0 -i 47 -a 0 -x {3.0 0.0 15 ------- null}
h -t 0.773364 -s 3 -d 10 -p ack -e 40 -c 0 -i 47 -a 0 -x {3.0 0.0 -1 ------- null}
- -t 0.779176 -s 0 -d 10 -p tcp -e 1040 -c 0 -i 34 -a 0 -x {0.0 3.0 19 ------- null}
h -t 0.779176 -s 0 -d 10 -p tcp -e 1040 -c 0 -i 34 -a 0 -x {0.0 3.0 -1 ------- null}
r -t 0.78042 -s 10 -d 3 -p tcp -e 1040 -c 0 -i 32 -a 0 -x {0.0 3.0 17 ------- null}
h -t 0.78042 -s 3 -d 10 -p ack -e 40 -c 0 -i 49 -a 0 -x {3.0 0.0 17 ------- null}
+ -t 0.781892 -s 3 -d 10 -p ack -e 40 -c 0 -i 48 -a 0 -x {3.0 0.0 16 ------- null}
- -t 0.783252 -s 3 -d 10 -p ack -e 40 -c 0 -i 48 -a 0 -x {3.0 0.0 16 ------- null}
h -t 0.783252 -s 3 -d 10 -p ack -e 40 -c 0 -i 48 -a 0 -x {3.0 0.0 -1 ------- null}
r -t 0.789084 -s 10 -d 3 -p tcp -e 1040 -c 0 -i 33 -a 0 -x {0.0 3.0 18 ------- null}
h -t 0.789084 -s 3 -d 10 -p ack -e 40 -c 0 -i 50 -a 0 -x {3.0 0.0 18 ------- null}
+ -t 0.79042 -s 3 -d 10 -p ack -e 40 -c 0 -i 49 -a 0 -x {3.0 0.0 17 ------- null}
- -t 0.79042 -s 3 -d 10 -p ack -e 40 -c 0 -i 49 -a 0 -x {3.0 0.0 17 ------- null}
h -t 0.79042 -s 3 -d 10 -p ack -e 40 -c 0 -i 49 -a 0 -x {3.0 0.0 -1 ------- null}
r -t 0.790848 -s 10 -d 3 -p tcp -e 40 -c 0 -i 46 -a 0 -x {1.0 3.1 0 ------- null}
h -t 0.790848 -s 3 -d 10 -p ack -e 40 -c 0 -i 51 -a 0 -x {3.1 1.0 0 ------- null}
- -t 0.792392 -s 0 -d 10 -p tcp -e 1040 -c 0 -i 35 -a 0 -x {0.0 3.0 20 ------- null}
h -t 0.792392 -s 0 -d 10 -p tcp -e 1040 -c 0 -i 35 -a 0 -x {0.0 3.0 -1 ------- null}
r -t 0.79316 -s 10 -d 0 -p ack -e 40 -c 0 -i 47 -a 0 -x {3.0 0.0 15 ------- null}
h -t 0.79316 -s 0 -d 10 -p tcp -e 1040 -c 0 -i 52 -a 0 -x {0.0 3.0 31 ------- null}
h -t 0.79316 -s 0 -d 10 -p tcp -e 1040 -c 0 -i 53 -a 0 -x {0.0 3.0 32 ------- null}
r -t 0.793768 -s 10 -d 0 -p ack -e 40 -c 0 -i 48 -a 0 -x {3.0 0.0 16 ------- null}
h -t 0.793768 -s 0 -d 10 -p tcp -e 1040 -c 0 -i 54 -a 0 -x {0.0 3.0 33 ------- null}
h -t 0.793768 -s 0 -d 10 -p tcp -e 1040 -c 0 -i 55 -a 0 -x {0.0 3.0 34 ------- null}
+ -t 0.799084 -s 3 -d 10 -p ack -e 40 -c 0 -i 50 -a 0 -x {3.0 0.0 18 ------- null}
- -t 0.799084 -s 3 -d 10 -p ack -e 40 -c 0 -i 50 -a 0 -x {3.0 0.0 18 ------- null}
h -t 0.799084 -s 3 -d 10 -p ack -e 40 -c 0 -i 50 -a 0 -x {3.0 0.0 -1 ------- null}
+ -t 0.800848 -s 3 -d 10 -p ack -e 40 -c 0 -i 51 -a 0 -x {3.1 1.0 0 ------- null}
r -t 0.8023 -s 10 -d 3 -p tcp -e 1040 -c 0 -i 34 -a 0 -x {0.0 3.0 19 ------- null}
h -t 0.8023 -s 3 -d 10 -p ack -e 40 -c 0 -i 56 -a 0 -x {3.0 0.0 19 ------- null}
+ -t 0.80316 -s 0 -d 10 -p tcp -e 1040 -c 0 -i 52 -a 0 -x {0.0 3.0 31 ------- null}
+ -t 0.80316 -s 0 -d 10 -p tcp -e 1040 -c 0 -i 53 -a 0 -x {0.0 3.0 32 ------- null}
- -t 0.803232 -s 0 -d 10 -p tcp -e 1040 -c 0 -i 36 -a 0 -x {0.0 3.0 21 ------- null}
h -t 0.803232 -s 0 -d 10 -p tcp -e 1040 -c 0 -i 36 -a 0 -x {0.0 3.0 -1 ------- null}
+ -t 0.803768 -s 0 -d 10 -p tcp -e 1040 -c 0 -i 54 -a 0 -x {0.0 3.0 33 ------- null}
+ -t 0.803768 -s 0 -d 10 -p tcp -e 1040 -c 0 -i 55 -a 0 -x {0.0 3.0 34 ------- null}
r -t 0.804199999999999 -s 10 -d 0 -p ack -e 40 -c 0 -i 49 -a 0 -x {3.0 0.0 17 ------- null}
h -t 0.804199999999999 -s 0 -d 10 -p tcp -e 1040 -c 0 -i 57 -a 0 -x {0.0 3.0 35 ------- null}
h -t 0.804199999999999 -s 0 -d 10 -p tcp -e 1040 -c 0 -i 58 -a 0 -x {0.0 3.0 36 ------- null}
- -t 0.811896 -s 0 -d 10 -p tcp -e 1040 -c 0 -i 37 -a 0 -x {0.0 3.0 22 ------- null}
h -t 0.811896 -s 0 -d 10 -p tcp -e 1040 -c 0 -i 37 -a 0 -x {0.0 3.0 -1 ------- null}
+ -t 0.8123 -s 3 -d 10 -p ack -e 40 -c 0 -i 56 -a 0 -x {3.0 0.0 19 ------- null}
r -t 0.81314 -s 10 -d 3 -p tcp -e 1040 -c 0 -i 35 -a 0 -x {0.0 3.0 20 ------- null}
h -t 0.81314 -s 3 -d 10 -p ack -e 40 -c 0 -i 59 -a 0 -x {3.0 0.0 20 ------- null}
- -t 0.813795999999999 -s 3 -d 10 -p ack -e 40 -c 0 -i 51 -a 0 -x {3.1 1.0 0 ------- null}
h -t 0.813795999999999 -s 3 -d 10 -p ack -e 40 -c 0 -i 51 -a 0 -x {3.1 1.0 -1 ------- null}
+ -t 0.814199999999999 -s 0 -d 10 -p tcp -e 1040 -c 0 -i 57 -a 0 -x {0.0 3.0 35 ------- null}
+ -t 0.814199999999999 -s 0 -d 10 -p tcp -e 1040 -c 0 -i 58 -a 0 -x {0.0 3.0 36 ------- null}
- -t 0.814403999999999 -s 3 -d 10 -p ack -e 40 -c 0 -i 56 -a 0 -x {3.0 0.0 19 ------- null}
h -t 0.814403999999999 -s 3 -d 10 -p ack -e 40 -c 0 -i 56 -a 0 -x {3.0 0.0 -1 ------- null}
r -t 0.821804 -s 10 -d 3 -p tcp -e 1040 -c 0 -i 36 -a 0 -x {0.0 3.0 21 ------- null}
h -t 0.821804 -s 3 -d 10 -p ack -e 40 -c 0 -i 60 -a 0 -x {3.0 0.0 21 ------- null}
+ -t 0.82314 -s 3 -d 10 -p ack -e 40 -c 0 -i 59 -a 0 -x {3.0 0.0 20 ------- null}
- -t 0.82314 -s 3 -d 10 -p ack -e 40 -c 0 -i 59 -a 0 -x {3.0 0.0 20 ------- null}
h -t 0.82314 -s 3 -d 10 -p ack -e 40 -c 0 -i 59 -a 0 -x {3.0 0.0 -1 ------- null}
- -t 0.823679999999999 -s 0 -d 10 -p tcp -e 1040 -c 0 -i 38 -a 0 -x {0.0 3.0 23 ------- null}
h -t 0.823679999999999 -s 0 -d 10 -p tcp -e 1040 -c 0 -i 38 -a 0 -x {0.0 3.0 -1 ------- null}
r -t 0.823703999999999 -s 10 -d 0 -p ack -e 40 -c 0 -i 50 -a 0 -x {3.0 0.0 18 ------- null}
h -t 0.823703999999999 -s 0 -d 10 -p tcp -e 1040 -c 0 -i 61 -a 0 -x {0.0 3.0 37 ------- null}
h -t 0.823703999999999 -s 0 -d 10 -p tcp -e 1040 -c 0 -i 62 -a 0 -x {0.0 3.0 38 ------- null}
r -t 0.824311999999999 -s 10 -d 1 -p ack -e 40 -c 0 -i 51 -a 0 -x {3.1 1.0 0 ------- null}
h -t 0.824311999999999 -s 1 -d 10 -p tcp -e 1040 -c 0 -i 63 -a 0 -x {1.0 3.1 1 ------- null}
h -t 0.824311999999999 -s 1 -d 10 -p tcp -e 1040 -c 0 -i 64 -a 0 -x {1.0 3.1 2 ------- null}
r -t 0.825055999999999 -s 10 -d 0 -p ack -e 40 -c 0 -i 56 -a 0 -x {3.0 0.0 19 ------- null}
h -t 0.825055999999999 -s 0 -d 10 -p tcp -e 1040 -c 0 -i 65 -a 0 -x {0.0 3.0 39 ------- null}
+ -t 0.831804 -s 3 -d 10 -p ack -e 40 -c 0 -i 60 -a 0 -x {3.0 0.0 21 ------- null}
- -t 0.832343999999999 -s 0 -d 10 -p tcp -e 1040 -c 0 -i 39 -a 0 -x {0.0 3.0 24 ------- null}
h -t 0.832343999999999 -s 0 -d 10 -p tcp -e 1040 -c 0 -i 39 -a 0 -x {0.0 3.0 -1 ------- null}
r -t 0.833587999999999 -s 10 -d 3 -p tcp -e 1040 -c 0 -i 37 -a 0 -x {0.0 3.0 22 ------- null}
h -t 0.833587999999999 -s 3 -d 10 -p ack -e 40 -c 0 -i 66 -a 0 -x {3.0 0.0 22 ------- null}
+ -t 0.833703999999999 -s 0 -d 10 -p tcp -e 1040 -c 0 -i 61 -a 0 -x {0.0 3.0 37 ------- null}
+ -t 0.833703999999999 -s 0 -d 10 -p tcp -e 1040 -c 0 -i 62 -a 0 -x {0.0 3.0 38 ------- null}
+ -t 0.834311999999999 -s 1 -d 10 -p tcp -e 1040 -c 0 -i 63 -a 0 -x {1.0 3.1 1 ------- null}
- -t 0.834311999999999 -s 1 -d 10 -p tcp -e 1040 -c 0 -i 63 -a 0 -x {1.0 3.1 1 ------- null}
h -t 0.834311999999999 -s 1 -d 10 -p tcp -e 1040 -c 0 -i 63 -a 0 -x {1.0 3.1 -1 ------- null}
+ -t 0.834311999999999 -s 1 -d 10 -p tcp -e 1040 -c 0 -i 64 -a 0 -x {1.0 3.1 2 ------- null}
- -t 0.834755999999999 -s 3 -d 10 -p ack -e 40 -c 0 -i 60 -a 0 -x {3.0 0.0 21 ------- null}
h -t 0.834755999999999 -s 3 -d 10 -p ack -e 40 -c 0 -i 60 -a 0 -x {3.0 0.0 -1 ------- null}
+ -t 0.835055999999999 -s 0 -d 10 -p tcp -e 1040 -c 0 -i 65 -a 0 -x {0.0 3.0 39 ------- null}
r -t 0.842251999999999 -s 10 -d 3 -p tcp -e 1040 -c 0 -i 38 -a 0 -x {0.0 3.0 23 ------- null}
h -t 0.842251999999999 -s 3 -d 10 -p ack -e 40 -c 0 -i 67 -a 0 -x {3.0 0.0 23 ------- null}
+ -t 0.843587999999999 -s 3 -d 10 -p ack -e 40 -c 0 -i 66 -a 0 -x {3.0 0.0 22 ------- null}
- -t 0.843587999999999 -s 3 -d 10 -p ack -e 40 -c 0 -i 66 -a 0 -x {3.0 0.0 22 ------- null}
h -t 0.843587999999999 -s 3 -d 10 -p ack -e 40 -c 0 -i 66 -a 0 -x {3.0 0.0 -1 ------- null}
r -t 0.844663999999999 -s 10 -d 0 -p ack -e 40 -c 0 -i 59 -a 0 -x {3.0 0.0 20 ------- null}
h -t 0.844663999999999 -s 0 -d 10 -p tcp -e 1040 -c 0 -i 68 -a 0 -x {0.0 3.0 40 ------- null}
- -t 0.845087999999999 -s 1 -d 10 -p tcp -e 1040 -c 0 -i 64 -a 0 -x {1.0 3.1 2 ------- null}
h -t 0.845087999999999 -s 1 -d 10 -p tcp -e 1040 -c 0 -i 64 -a 0 -x {1.0 3.1 -1 ------- null}
r -t 0.846047999999999 -s 10 -d 0 -p ack -e 40 -c 0 -i 60 -a 0 -x {3.0 0.0 21 ------- null}
h -t 0.846047999999999 -s 0 -d 10 -p tcp -e 1040 -c 0 -i 69 -a 0 -x {0.0 3.0 41 ------- null}
+ -t 0.852251999999999 -s 3 -d 10 -p ack -e 40 -c 0 -i 67 -a 0 -x {3.0 0.0 23 ------- null}
+ -t 0.854663999999999 -s 0 -d 10 -p tcp -e 1040 -c 0 -i 68 -a 0 -x {0.0 3.0 40 ------- null}
r -t 0.854995999999999 -s 10 -d 3 -p tcp -e 1040 -c 0 -i 63 -a 0 -x {1.0 3.1 1 ------- null}
h -t 0.854995999999999 -s 3 -d 10 -p ack -e 40 -c 0 -i 70 -a 0 -x {3.1 1.0 1 ------- null}
- -t 0.856031999999999 -s 3 -d 10 -p ack -e 40 -c 0 -i 67 -a 0 -x {3.0 0.0 23 ------- null}
h -t 0.856031999999999 -s 3 -d 10 -p ack -e 40 -c 0 -i 67 -a 0 -x {3.0 0.0 -1 ------- null}
+ -t 0.856047999999999 -s 0 -d 10 -p tcp -e 1040 -c 0 -i 69 -a 0 -x {0.0 3.0 41 ------- null}
r -t 0.863659999999999 -s 10 -d 3 -p tcp -e 1040 -c 0 -i 64 -a 0 -x {1.0 3.1 2 ------- null}
h -t 0.863659999999999 -s 3 -d 10 -p ack -e 40 -c 0 -i 71 -a 0 -x {3.1 1.0 2 ------- null}
+ -t 0.864995999999999 -s 3 -d 10 -p ack -e 40 -c 0 -i 70 -a 0 -x {3.1 1.0 1 ------- null}
- -t 0.864995999999999 -s 3 -d 10 -p ack -e 40 -c 0 -i 70 -a 0 -x {3.1 1.0 1 ------- null}
h -t 0.864995999999999 -s 3 -d 10 -p ack -e 40 -c 0 -i 70 -a 0 -x {3.1 1.0 -1 ------- null}
r -t 0.865939999999999 -s 10 -d 0 -p ack -e 40 -c 0 -i 66 -a 0 -x {3.0 0.0 22 ------- null}
h -t 0.865939999999999 -s 0 -d 10 -p tcp -e 1040 -c 0 -i 72 -a 0 -x {0.0 3.0 42 ------- null}
r -t 0.866547999999999 -s 10 -d 0 -p ack -e 40 -c 0 -i 67 -a 0 -x {3.0 0.0 23 ------- null}
h -t 0.866547999999999 -s 0 -d 10 -p tcp -e 1040 -c 0 -i 73 -a 0 -x {0.0 3.0 43 ------- null}
+ -t 0.873659999999999 -s 3 -d 10 -p ack -e 40 -c 0 -i 71 -a 0 -x {3.1 1.0 2 ------- null}
- -t 0.873659999999999 -s 3 -d 10 -p ack -e 40 -c 0 -i 71 -a 0 -x {3.1 1.0 2 ------- null}
h -t 0.873659999999999 -s 3 -d 10 -p ack -e 40 -c 0 -i 71 -a 0 -x {3.1 1.0 -1 ------- null}
r -t 0.875511999999999 -s 10 -d 1 -p ack -e 40 -c 0 -i 70 -a 0 -x {3.1 1.0 1 ------- null}
h -t 0.875511999999999 -s 1 -d 10 -p tcp -e 1040 -c 0 -i 74 -a 0 -x {1.0 3.1 3 ------- null}
h -t 0.875511999999999 -s 1 -d 10 -p tcp -e 1040 -c 0 -i 75 -a 0 -x {1.0 3.1 4 ------- null}
+ -t 0.875939999999999 -s 0 -d 10 -p tcp -e 1040 -c 0 -i 72 -a 0 -x {0.0 3.0 42 ------- null}
+ -t 0.876547999999999 -s 0 -d 10 -p tcp -e 1040 -c 0 -i 73 -a 0 -x {0.0 3.0 43 ------- null}
- -t 0.877263999999999 -s 0 -d 10 -p tcp -e 1040 -c 0 -i 40 -a 0 -x {0.0 3.0 25 ------- null}
h -t 0.877263999999999 -s 0 -d 10 -p tcp -e 1040 -c 0 -i 40 -a 0 -x {0.0 3.0 -1 ------- null}
+ -t 0.885511999999999 -s 1 -d 10 -p tcp -e 1040 -c 0 -i 74 -a 0 -x {1.0 3.1 3 ------- null}
- -t 0.885511999999999 -s 1 -d 10 -p tcp -e 1040 -c 0 -i 74 -a 0 -x {1.0 3.1 3 ------- null}
h -t 0.885511999999999 -s 1 -d 10 -p tcp -e 1040 -c 0 -i 74 -a 0 -x {1.0 3.1 -1 ------- null}
+ -t 0.885511999999999 -s 1 -d 10 -p tcp -e 1040 -c 0 -i 75 -a 0 -x {1.0 3.1 4 ------- null}
- -t 0.886535999999999 -s 0 -d 10 -p tcp -e 1040 -c 0 -i 41 -a 0 -x {0.0 3.0 26 ------- null}
h -t 0.886535999999999 -s 0 -d 10 -p tcp -e 1040 -c 0 -i 41 -a 0 -x {0.0 3.0 -1 ------- null}
r -t 0.887171999999999 -s 10 -d 3 -p tcp -e 1040 -c 0 -i 39 -a 0 -x {0.0 3.0 24 ------- null}
h -t 0.887171999999999 -s 3 -d 10 -p ack -e 40 -c 0 -i 76 -a 0 -x {3.0 0.0 24 ------- null}
r -t 0.887911999999999 -s 10 -d 1 -p ack -e 40 -c 0 -i 71 -a 0 -x {3.1 1.0 2 ------- null}
h -t 0.887911999999999 -s 1 -d 10 -p tcp -e 1040 -c 0 -i 77 -a 0 -x {1.0 3.1 5 ------- null}
h -t 0.887911999999999 -s 1 -d 10 -p tcp -e 1040 -c 0 -i 78 -a 0 -x {1.0 3.1 6 ------- null}
- -t 0.895839999999999 -s 0 -d 10 -p tcp -e 1040 -c 0 -i 42 -a 0 -x {0.0 3.0 27 ------- null}
h -t 0.895839999999999 -s 0 -d 10 -p tcp -e 1040 -c 0 -i 42 -a 0 -x {0.0 3.0 -1 ------- null}
r -t 0.896443999999999 -s 10 -d 3 -p tcp -e 1040 -c 0 -i 40 -a 0 -x {0.0 3.0 25 ------- null}
h -t 0.896443999999999 -s 3 -d 10 -p ack -e 40 -c 0 -i 79 -a 0 -x {3.0 0.0 25 ------- null}
+ -t 0.897171999999999 -s 3 -d 10 -p ack -e 40 -c 0 -i 76 -a 0 -x {3.0 0.0 24 ------- null}
- -t 0.897171999999999 -s 3 -d 10 -p ack -e 40 -c 0 -i 76 -a 0 -x {3.0 0.0 24 ------- null}
h -t 0.897171999999999 -s 3 -d 10 -p ack -e 40 -c 0 -i 76 -a 0 -x {3.0 0.0 -1 ------- null}
+ -t 0.897911999999999 -s 1 -d 10 -p tcp -e 1040 -c 0 -i 77 -a 0 -x {1.0 3.1 5 ------- null}
+ -t 0.897911999999999 -s 1 -d 10 -p tcp -e 1040 -c 0 -i 78 -a 0 -x {1.0 3.1 6 ------- null}
- -t 0.904503999999999 -s 0 -d 10 -p tcp -e 1040 -c 0 -i 43 -a 0 -x {0.0 3.0 28 ------- null}
h -t 0.904503999999999 -s 0 -d 10 -p tcp -e 1040 -c 0 -i 43 -a 0 -x {0.0 3.0 -1 ------- null}