h 0.5 0 10 tcp 40 ------- 0 0.0 3.0 0 0
+ 0.51 0 10 tcp 40 ------- 0 0.0 3.0 0 0
- 0.51 0 10 tcp 40 ------- 0 0.0 3.0 0 0
r 0.520516 10 3 tcp 40 ------- 0 0.0 3.0 0 0
h 0.520516 3 10 ack 40 ------- 0 3.0 0.0 0 1
+ 0.530516 3 10 ack 40 ------- 0 3.0 0.0 0 1
- 0.530516 3 10 ack 40 ------- 0 3.0 0.0 0 1
r 0.541032 10 0 ack 40 ------- 0 3.0 0.0 0 1
h 0.541032 0 10 tcp 1040 ------- 0 0.0 3.0 1 2
h 0.541032 0 10 tcp 1040 ------- 0 0.0 3.0 2 3
+ 0.551032 0 10 tcp 1040 ------- 0 0.0 3.0 1 2
- 0.551032 0 10 tcp 1040 ------- 0 0.0 3.0 1 2
+ 0.551032 0 10 tcp 1040 ------- 0 0.0 3.0 2 3
- 0.55956 0 10 tcp 1040 ------- 0 0.0 3.0 2 3
r 0.569468 10 3 tcp 1040 ------- 0 0.0 3.0 1 2
h 0.569468 3 10 ack 40 ------- 0 3.0 0.0 1 4
r 0.577996 10 3 tcp 1040 ------- 0 0.0 3.0 2 3
h 0.577996 3 10 ack 40 ------- 0 3.0 0.0 2 5
+ 0.579468 3 10 ack 40 ------- 0 3.0 0.0 1 4
- 0.579468 3 10 ack 40 ------- 0 3.0 0.0 1 4
+ 0.587996 3 10 ack 40 ------- 0 3.0 0.0 2 5
- 0.587996 3 10 ack 40 ------- 0 3.0 0.0 2 5
r 0.589984 10 0 ack 40 ------- 0 3.0 0.0 1 4
h 0.589984 0 10 tcp 1040 ------- 0 0.0 3.0 3 6
h 0.589984 0 10 tcp 1040 ------- 0 0.0 3.0 4 7
r 0.598512 10 0 ack 40 ------- 0 3.0 0.0 2 5
h 0.598512 0 10 tcp 1040 ------- 0 0.0 3.0 5 8
h 0.598512 0 10 tcp 1040 ------- 0 0.0 3.0 6 9
+ 0.599984 0 10 tcp 1040 ------- 0 0.0 3.0 3 6
- 0.599984 0 10 tcp 1040 ------- 0 0.0 3.0 3 6
+ 0.599984 0 10 tcp 1040 ------- 0 0.0 3.0 4 7
+ 0.608512 0 10 tcp 1040 ------- 0 0.0 3.0 5 8
+ 0.608512 0 10 tcp 1040 ------- 0 0.0 3.0 6 9
- 0.608512 0 10 tcp 1040 ------- 0 0.0 3.0 4 7
- 0.61704 0 10 tcp 1040 ------- 0 0.0 3.0 5 8
r 0.61842 10 3 tcp 1040 ------- 0 0.0 3.0 3 6
h 0.61842 3 10 ack 40 ------- 0 3.0 0.0 3 10
- 0.625568 0 10 tcp 1040 ------- 0 0.0 3.0 6 9
r 0.626948 10 3 tcp 1040 ------- 0 0.0 3.0 4 7
h 0.626948 3 10 ack 40 ------- 0 3.0 0.0 4 11
+ 0.62842 3 10 ack 40 ------- 0 3.0 0.0 3 10
- 0.62842 3 10 ack 40 ------- 0 3.0 0.0 3 10
r 0.635476 10 3 tcp 1040 ------- 0 0.0 3.0 5 8
h 0.635476 3 10 ack 40 ------- 0 3.0 0.0 5 12
+ 0.636948 3 10 ack 40 ------- 0 3.0 0.0 4 11
- 0.636948 3 10 ack 40 ------- 0 3.0 0.0 4 11
r 0.644004 10 3 tcp 1040 ------- 0 0.0 3.0 6 9
h 0.644004 3 10 ack 40 ------- 0 3.0 0.0 6 13
r 0.644616 10 0 ack 40 ------- 0 3.0 0.0 3 10
h 0.644616 0 10 tcp 1040 ------- 0 0.0 3.0 7 14
h 0.644616 0 10 tcp 1040 ------- 0 0.0 3.0 8 15
+ 0.645476 3 10 ack 40 ------- 0 3.0 0.0 5 12
- 0.645476 3 10 ack 40 ------- 0 3.0 0.0 5 12
r 0.647464 10 0 ack 40 ------- 0 3.0 0.0 4 11
h 0.647464 0 10 tcp 1040 ------- 0 0.0 3.0 9 16
h 0.647464 0 10 tcp 1040 ------- 0 0.0 3.0 10 17
+ 0.654004 3 10 ack 40 ------- 0 3.0 0.0 6 13
- 0.654004 3 10 ack 40 ------- 0 3.0 0.0 6 13
+ 0.654616 0 10 tcp 1040 ------- 0 0.0 3.0 7 14
- 0.654616 0 10 tcp 1040 ------- 0 0.0 3.0 7 14
+ 0.654616 0 10 tcp 1040 ------- 0 0.0 3.0 8 15
r 0.655992 10 0 ack 40 ------- 0 3.0 0.0 5 12
h 0.655992 0 10 tcp 1040 ------- 0 0.0 3.0 11 18
h 0.655992 0 10 tcp 1040 ------- 0 0.0 3.0 12 19
+ 0.657464 0 10 tcp 1040 ------- 0 0.0 3.0 9 16
+ 0.657464 0 10 tcp 1040 ------- 0 0.0 3.0 10 17
- 0.663144 0 10 tcp 1040 ------- 0 0.0 3.0 8 15
r 0.66452 10 0 ack 40 ------- 0 3.0 0.0 6 13
h 0.66452 0 10 tcp 1040 ------- 0 0.0 3.0 13 20
h 0.66452 0 10 tcp 1040 ------- 0 0.0 3.0 14 21
+ 0.665992 0 10 tcp 1040 ------- 0 0.0 3.0 11 18
+ 0.665992 0 10 tcp 1040 ------- 0 0.0 3.0 12 19
- 0.671672 0 10 tcp 1040 ------- 0 0.0 3.0 9 16
r 0.673052 10 3 tcp 1040 ------- 0 0.0 3.0 7 14
h 0.673052 3 10 ack 40 ------- 0 3.0 0.0 7 22
+ 0.67452 0 10 tcp 1040 ------- 0 0.0 3.0 13 20
+ 0.67452 0 10 tcp 1040 ------- 0 0.0 3.0 14 21
- 0.6802 0 10 tcp 1040 ------- 0 0.0 3.0 10 17
r 0.68158 10 3 tcp 1040 ------- 0 0.0 3.0 8 15
h 0.68158 3 10 ack 40 ------- 0 3.0 0.0 8 23
+ 0.683052 3 10 ack 40 ------- 0 3.0 0.0 7 22
- 0.683052 3 10 ack 40 ------- 0 3.0 0.0 7 22
- 0.688728 0 10 tcp 1040 ------- 0 0.0 3.0 11 18
r 0.690108 10 3 tcp 1040 ------- 0 0.0 3.0 9 16
h 0.690108 3 10 ack 40 ------- 0 3.0 0.0 9 24
+ 0.69158 3 10 ack 40 ------- 0 3.0 0.0 8 23
- 0.697392 0 10 tcp 1040 ------- 0 0.0 3.0 12 19
r 0.698636 10 3 tcp 1040 ------- 0 0.0 3.0 10 17
h 0.698636 3 10 ack 40 ------- 0 3.0 0.0 10 25
+ 0.700108 3 10 ack 40 ------- 0 3.0 0.0 9 24
- 0.706568 0 10 tcp 1040 ------- 0 0.0 3.0 13 20
r 0.7073 10 3 tcp 1040 ------- 0 0.0 3.0 11 18
h 0.7073 3 10 ack 40 ------- 0 3.0 0.0 11 26
+ 0.708636 3 10 ack 40 ------- 0 3.0 0.0 10 25
- 0.715232 0 10 tcp 1040 ------- 0 0.0 3.0 14 21
r 0.716476 10 3 tcp 1040 ------- 0 0.0 3.0 12 19
h 0.716476 3 10 ack 40 ------- 0 3.0 0.0 12 27
+ 0.7173 3 10 ack 40 ------- 0 3.0 0.0 11 26
- 0.72502 3 10 ack 40 ------- 0 3.0 0.0 8 23
r 0.72514 10 3 tcp 1040 ------- 0 0.0 3.0 13 20
h 0.72514 3 10 ack 40 ------- 0 3.0 0.0 13 28
- 0.725628 3 10 ack 40 ------- 0 3.0 0.0 9 24
- 0.726236 3 10 ack 40 ------- 0 3.0 0.0 10 25
+ 0.726476 3 10 ack 40 ------- 0 3.0 0.0 12 27
- 0.726844 3 10 ack 40 ------- 0 3.0 0.0 11 26
- 0.727452 3 10 ack 40 ------- 0 3.0 0.0 12 27
r 0.734316 10 3 tcp 1040 ------- 0 0.0 3.0 14 21
h 0.734316 3 10 ack 40 ------- 0 3.0 0.0 14 29
r 0.734928 10 0 ack 40 ------- 0 3.0 0.0 7 22
h 0.734928 0 10 tcp 1040 ------- 0 0.0 3.0 15 30
h 0.734928 0 10 tcp 1040 ------- 0 0.0 3.0 16 31
+ 0.73514 3 10 ack 40 ------- 0 3.0 0.0 13 28
- 0.73514 3 10 ack 40 ------- 0 3.0 0.0 13 28
r 0.735536 10 0 ack 40 ------- 0 3.0 0.0 8 23
h 0.735536 0 10 tcp 1040 ------- 0 0.0 3.0 17 32
h 0.735536 0 10 tcp 1040 ------- 0 0.0 3.0 18 33
r 0.736144 10 0 ack 40 ------- 0 3.0 0.0 9 24
h 0.736144 0 10 tcp 1040 ------- 0 0.0 3.0 19 34
h 0.736144 0 10 tcp 1040 ------- 0 0.0 3.0 20 35
r 0.736752 10 0 ack 40 ------- 0 3.0 0.0 10 25
h 0.736752 0 10 tcp 1040 ------- 0 0.0 3.0 21 36
h 0.736752 0 10 tcp 1040 ------- 0 0.0 3.0 22 37
r 0.73736 10 0 ack 40 ------- 0 3.0 0.0 11 26
h 0.73736 0 10 tcp 1040 ------- 0 0.0 3.0 23 38
h 0.73736 0 10 tcp 1040 ------- 0 0.0 3.0 24 39
r 0.737968 10 0 ack 40 ------- 0 3.0 0.0 12 27
h 0.737968 0 10 tcp 1040 ------- 0 0.0 3.0 25 40
h 0.737968 0 10 tcp 1040 ------- 0 0.0 3.0 26 41
+ 0.744316 3 10 ack 40 ------- 0 3.0 0.0 14 29
- 0.744316 3 10 ack 40 ------- 0 3.0 0.0 14 29
+ 0.744928 0 10 tcp 1040 ------- 0 0.0 3.0 15 30
- 0.744928 0 10 tcp 1040 ------- 0 0.0 3.0 15 30
+ 0.744928 0 10 tcp 1040 ------- 0 0.0 3.0 16 31
+ 0.745536 0 10 tcp 1040 ------- 0 0.0 3.0 17 32
+ 0.745536 0 10 tcp 1040 ------- 0 0.0 3.0 18 33
r 0.745656 10 0 ack 40 ------- 0 3.0 0.0 13 28
h 0.745656 0 10 tcp 1040 ------- 0 0.0 3.0 27 42
h 0.745656 0 10 tcp 1040 ------- 0 0.0 3.0 28 43
+ 0.746144 0 10 tcp 1040 ------- 0 0.0 3.0 19 34
+ 0.746144 0 10 tcp 1040 ------- 0 0.0 3.0 20 35
+ 0.746752 0 10 tcp 1040 ------- 0 0.0 3.0 21 36
+ 0.746752 0 10 tcp 1040 ------- 0 0.0 3.0 22 37
+ 0.74736 0 10 tcp 1040 ------- 0 0.0 3.0 23 38
+ 0.74736 0 10 tcp 1040 ------- 0 0.0 3.0 24 39
+ 0.747968 0 10 tcp 1040 ------- 0 0.0 3.0 25 40
+ 0.747968 0 10 tcp 1040 ------- 0 0.0 3.0 26 41
- 0.753456 0 10 tcp 1040 ------- 0 0.0 3.0 16 31
r 0.754832 10 0 ack 40 ------- 0 3.0 0.0 14 29
h 0.754832 0 10 tcp 1040 ------- 0 0.0 3.0 29 44
h 0.754832 0 10 tcp 1040 ------- 0 0.0 3.0 30 45
+ 0.755656 0 10 tcp 1040 ------- 0 0.0 3.0 27 42
+ 0.755656 0 10 tcp 1040 ------- 0 0.0 3.0 28 43
h 0.759035 1 10 tcp 40 ------- 0 1.0 3.1 0 46
- 0.761984 0 10 tcp 1040 ------- 0 0.0 3.0 17 32
r 0.763364 10 3 tcp 1040 ------- 0 0.0 3.0 15 30
h 0.763364 3 10 ack 40 ------- 0 3.0 0.0 15 47
+ 0.764832 0 10 tcp 1040 ------- 0 0.0 3.0 29 44
+ 0.764832 0 10 tcp 1040 ------- 0 0.0 3.0 30 45
+ 0.769035 1 10 tcp 40 ------- 0 1.0 3.1 0 46
- 0.769035 1 10 tcp 40 ------- 0 1.0 3.1 0 46
- 0.770512 0 10 tcp 1040 ------- 0 0.0 3.0 18 33
r 0.771892 10 3 tcp 1040 ------- 0 0.0 3.0 16 31
h 0.771892 3 10 ack 40 ------- 0 3.0 0.0 16 48
+ 0.773364 3 10 ack 40 ------- 0 3.0 0.0 15 47
- 0.773364 3 10 ack 40 ------- 0 3.0 0.0 15 47
- 0.779176 0 10 tcp 1040 ------- 0 0.0 3.0 19 34
r 0.78042 10 3 tcp 1040 ------- 0 0.0 3.0 17 32
h 0.78042 3 10 ack 40 ------- 0 3.0 0.0 17 49
+ 0.781892 3 10 ack 40 ------- 0 3.0 0.0 16 48
- 0.783252 3 10 ack 40 ------- 0 3.0 0.0 16 48
r 0.789084 10 3 tcp 1040 ------- 0 0.0 3.0 18 33
h 0.789084 3 10 ack 40 ------- 0 3.0 0.0 18 50
+ 0.79042 3 10 ack 40 ------- 0 3.0 0.0 17 49
- 0.79042 3 10 ack 40 ------- 0 3.0 0.0 17 49
r 0.790848 10 3 tcp 40 ------- 0 1.0 3.1 0 46
h 0.790848 3 10 ack 40 ------- 0 3.1 1.0 0 51
- 0.792392 0 10 tcp 1040 ------- 0 0.0 3.0 20 35
r 0.79316 10 0 ack 40 ------- 0 3.0 0.0 15 47
h 0.79316 0 10 tcp 1040 ------- 0 0.0 3.0 31 52
h 0.79316 0 10 tcp 1040 ------- 0 0.0 3.0 32 53
r 0.793768 10 0 ack 40 ------- 0 3.0 0.0 16 48
h 0.793768 0 10 tcp 1040 ------- 0 0.0 3.0 33 54
h 0.793768 0 10 tcp 1040 ------- 0 0.0 3.0 34 55
+ 0.799084 3 10 ack 40 ------- 0 3.0 0.0 18 50
- 0.799084 3 10 ack 40 ------- 0 3.0 0.0 18 50
+ 0.800848 3 10 ack 40 ------- 0 3.1 1.0 0 51
r 0.8023 10 3 tcp 1040 ------- 0 0.0 3.0 19 34
h 0.8023 3 10 ack 40 ------- 0 3.0 0.0 19 56
+ 0.80316 0 10 tcp 1040 ------- 0 0.0 3.0 31 52
+ 0.80316 0 10 tcp 1040 ------- 0 0.0 3.0 32 53
- 0.803232 0 10 tcp 1040 ------- 0 0.0 3.0 21 36
+ 0.803768 0 10 tcp 1040 ------- 0 0.0 3.0 33 54
+ 0.803768 0 10 tcp 1040 ------- 0 0.0 3.0 34 55
r 0.8042 10 0 ack 40 ------- 0 3.0 0.0 17 49
h 0.8042 0 10 tcp 1040 ------- 0 0.0 3.0 35 57
h 0.8042 0 10 tcp 1040 ------- 0 0.0 3.0 36 58
- 0.811896 0 10 tcp 1040 ------- 0 0.0 3.0 22 37
+ 0.8123 3 10 ack 40 ------- 0 3.0 0.0 19 56
r 0.81314 10 3 tcp 1040 ------- 0 0.0 3.0 20 35
h 0.81314 3 10 ack 40 ------- 0 3.0 0.0 20 59
- 0.813796 3 10 ack 40 ------- 0 3.1 1.0 0 51
+ 0.8142 0 10 tcp 1040 ------- 0 0.0 3.0 35 57
+ 0.8142 0 10 tcp 1040 ------- 0 0.0 3.0 36 58
- 0.814404 3 10 ack 40 ------- 0 3.0 0.0 19 56
r 0.821804 10 3 tcp 1040 ------- 0 0.0 3.0 21 36
h 0.821804 3 10 ack 40 ------- 0 3.0 0.0 21 60
+ 0.82314 3 10 ack 40 ------- 0 3.0 0.0 20 59
- 0.82314 3 10 ack 40 ------- 0 3.0 0.0 20 59
- 0.82368 0 10 tcp 1040 ------- 0 0.0 3.0 23 38
r 0.823704 10 0 ack 40 ------- 0 3.0 0.0 18 50
h 0.823704 0 10 tcp 1040 ------- 0 0.0 3.0 37 61
h 0.823704 0 10 tcp 1040 ------- 0 0.0 3.0 38 62
r 0.824312 10 1 ack 40 ------- 0 3.1 1.0 0 51
h 0.824312 1 10 tcp 1040 ------- 0 1.0 3.1 1 63
h 0.824312 1 10 tcp 1040 ------- 0 1.0 3.1 2 64
r 0.825056 10 0 ack 40 ------- 0 3.0 0.0 19 56
h 0.825056 0 10 tcp 1040 ------- 0 0.0 3.0 39 65
+ 0.831804 3 10 ack 40 ------- 0 3.0 0.0 21 60
- 0.832344 0 10 tcp 1040 ------- 0 0.0 3.0 24 39
r 0.833588 10 3 tcp 1040 ------- 0 0.0 3.0 22 37
h 0.833588 3 10 ack 40 ------- 0 3.0 0.0 22 66
+ 0.833704 0 10 tcp 1040 ------- 0 0.0 3.0 37 61
+ 0.833704 0 10 tcp 1040 ------- 0 0.0 3.0 38 62
+ 0.834312 1 10 tcp 1040 ------- 0 1.0 3.1 1 63
- 0.834312 1 10 tcp 1040 ------- 0 1.0 3.1 1 63
+ 0.834312 1 10 tcp 1040 ------- 0 1.0 3.1 2 64
- 0.834756 3 10 ack 40 ------- 0 3.0 0.0 21 60
+ 0.835056 0 10 tcp 1040 ------- 0 0.0 3.0 39 65
r 0.842252 10 3 tcp 1040 ------- 0 0.0 3.0 23 38
h 0.842252 3 10 ack 40 ------- 0 3.0 0.0 23 67
+ 0.843588 3 10 ack 40 ------- 0 3.0 0.0 22 66
- 0.843588 3 10 ack 40 ------- 0 3.0 0.0 22 66
r 0.844664 10 0 ack 40 ------- 0 3.0 0.0 20 59
h 0.844664 0 10 tcp 1040 ------- 0 0.0 3.0 40 68
- 0.845088 1 10 tcp 1040 ------- 0 1.0 3.1 2 64
r 0.846048 10 0 ack 40 ------- 0 3.0 0.0 21 60
h 0.846048 0 10 tcp 1040 ------- 0 0.0 3.0 41 69
+ 0.852252 3 10 ack 40 ------- 0 3.0 0.0 23 67
+ 0.854664 0 10 tcp 1040 ------- 0 0.0 3.0 40 68
r 0.854996 10 3 tcp 1040 ------- 0 1.0 3.1 1 63
h 0.854996 3 10 ack 40 ------- 0 3.1 1.0 1 70
- 0.856032 3 10 ack 40 ------- 0 3.0 0.0 23 67
+ 0.856048 0 10 tcp 1040 ------- 0 0.0 3.0 41 69
r 0.86366 10 3 tcp 1040 ------- 0 1.0 3.1 2 64
h 0.86366 3 10 ack 40 ------- 0 3.1 1.0 2 71
+ 0.864996 3 10 ack 40 ------- 0 3.1 1.0 1 70
- 0.864996 3 10 ack 40 ------- 0 3.1 1.0 1 70
r 0.86594 10 0 ack 40 ------- 0 3.0 0.0 22 66
h 0.86594 0 10 tcp 1040 ------- 0 0.0 3.0 42 72
r 0.866548 10 0 ack 40 ------- 0 3.0 0.0 23 67
h 0.866548 0 10 tcp 1040 ------- 0 0.0 3.0 43 73
+ 0.87366 3 10 ack 40 ------- 0 3.1 1.0 2 71
- 0.87366 3 10 ack 40 ------- 0 3.1 1.0 2 71
r 0.875512 10 1 ack 40 ------- 0 3.1 1.0 1 70
h 0.875512 1 10 tcp 1040 ------- 0 1.0 3.1 3 74
h 0.875512 1 10 tcp 1040 ------- 0 1.0 3.1 4 75
+ 0.87594 0 10 tcp 1040 ------- 0 0.0 3.0 42 72
+ 0.876548 0 10 tcp 1040 ------- 0 0.0 3.0 43 73
- 0.877264 0 10 tcp 1040 ------- 0 0.0 3.0 25 40
+ 0.885512 1 10 tcp 1040 ------- 0 1.0 3.1 3 74
- 0.885512 1 10 tcp 1040 ------- 0 1.0 3.1 3 74
+ 0.885512 1 10 tcp 1040 ------- 0 1.0 3.1 4 75
- 0.886536 0 10 tcp 1040 ------- 0 0.0 3.0 26 41
r 0.887172 10 3 tcp 1040 ------- 0 0.0 3.0 24 39
h 0.887172 3 10 ack 40 ------- 0 3.0 0.0 24 76
r 0.887912 10 1 ack 40 ------- 0 3.1 1.0 2 71
h 0.887912 1 10 tcp 1040 ------- 0 1.0 3.1 5 77
h 0.887912 1 10 tcp 1040 ------- 0 1.0 3.1 6 78
- 0.89584 0 10 tcp 1040 ------- 0 0.0 3.0 27 42
r 0.896444 10 3 tcp 1040 ------- 0 0.0 3.0 25 40
h 0.896444 3 10 ack 40 ------- 0 3.0 0.0 25 79
+ 0.897172 3 10 ack 40 ------- 0 3.0 0.0 24 76
- 0.897172 3 10 ack 40 ------- 0 3.0 0.0 24 76
+ 0.897912 1 10 tcp 1040 ------- 0 1.0 3.1 5 77
+ 0.897912 1 10 tcp 1040 ------- 0 1.0 3.1 6 78
- 0.904504 0 10 tcp 1040 ------- 0 0.0 3.0 28 43
r 0.905748 10 3 tcp 1040 ------- 0 0.0 3.0 26 41
h 0.905748 3 10 ack 40 ------- 0 3.0 0.0 26 80
+ 0.906444 3 10 ack 40 ------- 0 3.0 0.0 25 79
- 0.906916 3 10 ack 40 ------- 0 3.0 0.0 25 79
r 0.914412 10 3 tcp 1040 ------- 0 0.0 3.0 27 42
h 0.914412 3 10 ack 40 ------- 0 3.0 0.0 27 81
+ 0.915748 3 10 ack 40 ------- 0 3.0 0.0 26 80
- 0.915748 3 10 ack 40 ------- 0 3.0 0.0 26 80
- 0.916192 0 10 tcp 1040 ------- 0 0.0 3.0 29 44
r 0.916824 10 0 ack 40 ------- 0 3.0 0.0 24 76
h 0.916824 0 10 tcp 1040 ------- 0 0.0 3.0 44 82
r 0.917568 10 0 ack 40 ------- 0 3.0 0.0 25 79
h 0.917568 0 10 tcp 1040 ------- 0 0.0 3.0 45 83
+ 0.924412 3 10 ack 40 ------- 0 3.0 0.0 27 81
- 0.924412 3 10 ack 40 ------- 0 3.0 0.0 27 81
- 0.925464 0 10 tcp 1040 ------- 0 0.0 3.0 30 45
r 0.9261 10 3 tcp 1040 ------- 0 0.0 3.0 28 43
h 0.9261 3 10 ack 40 ------- 0 3.0 0.0 28 84
+ 0.926824 0 10 tcp 1040 ------- 0 0.0 3.0 44 82
r 0.92684 10 0 ack 40 ------- 0 3.0 0.0 26 80
h 0.92684 0 10 tcp 1040 ------- 0 0.0 3.0 46 85
+ 0.927568 0 10 tcp 1040 ------- 0 0.0 3.0 45 83
- 0.93528 0 10 tcp 1040 ------- 0 0.0 3.0 31 52
r 0.935372 10 3 tcp 1040 ------- 0 0.0 3.0 29 44
h 0.935372 3 10 ack 40 ------- 0 3.0 0.0 29 86
+ 0.9361 3 10 ack 40 ------- 0 3.0 0.0 28 84
+ 0.93684 0 10 tcp 1040 ------- 0 0.0 3.0 46 85
- 0.944456 0 10 tcp 1040 ------- 0 0.0 3.0 32 53
r 0.945188 10 3 tcp 1040 ------- 0 0.0 3.0 30 45
h 0.945188 3 10 ack 40 ------- 0 3.0 0.0 30 87
+ 0.945372 3 10 ack 40 ------- 0 3.0 0.0 29 86
r 0.954364 10 3 tcp 1040 ------- 0 0.0 3.0 31 52
h 0.954364 3 10 ack 40 ------- 0 3.0 0.0 31 88
- 0.954784 0 10 tcp 1040 ------- 0 0.0 3.0 33 54
+ 0.955188 3 10 ack 40 ------- 0 3.0 0.0 30 87
- 0.96396 0 10 tcp 1040 ------- 0 0.0 3.0 34 55
+ 0.964364 3 10 ack 40 ------- 0 3.0 0.0 31 88
r 0.964692 10 3 tcp 1040 ------- 0 0.0 3.0 32 53
h 0.964692 3 10 ack 40 ------- 0 3.0 0.0 32 89
- 0.973136 0 10 tcp 1040 ------- 0 0.0 3.0 35 57
r 0.973868 10 3 tcp 1040 ------- 0 0.0 3.0 33 54
h 0.973868 3 10 ack 40 ------- 0 3.0 0.0 33 90
+ 0.974692 3 10 ack 40 ------- 0 3.0 0.0 32 89
- 0.982312 0 10 tcp 1040 ------- 0 0.0 3.0 36 58
r 0.983044 10 3 tcp 1040 ------- 0 0.0 3.0 34 55
h 0.983044 3 10 ack 40 ------- 0 3.0 0.0 34 91
+ 0.983868 3 10 ack 40 ------- 0 3.0 0.0 33 90
- 0.991488 0 10 tcp 1040 ------- 0 0.0 3.0 37 61
r 0.99222 10 3 tcp 1040 ------- 0 0.0 3.0 35 57
h 0.99222 3 10 ack 40 ------- 0 3.0 0.0 35 92
+ 0.993044 3 10 ack 40 ------- 0 3.0 0.0 34 91
- 1.000016 0 10 tcp 1040 ------- 0 0.0 3.0 38 62
r 1.001396 10 3 tcp 1040 ------- 0 0.0 3.0 36 58
h 1.001396 3 10 ack 40 ------- 0 3.0 0.0 36 93
+ 1.00222 3 10 ack 40 ------- 0 3.0 0.0 35 92
- 1.008544 0 10 tcp 1040 ------- 0 0.0 3.0 39 65
r 1.009924 10 3 tcp 1040 ------- 0 0.0 3.0 37 61
h 1.009924 3 10 ack 40 ------- 0 3.0 0.0 37 94
+ 1.011396 3 10 ack 40 ------- 0 3.0 0.0 36 93
- 1.017072 0 10 tcp 1040 ------- 0 0.0 3.0 40 68
r 1.018452 10 3 tcp 1040 ------- 0 0.0 3.0 38 62
h 1.018452 3 10 ack 40 ------- 0 3.0 0.0 38 95
+ 1.019924 3 10 ack 40 ------- 0 3.0 0.0 37 94
- 1.0256 0 10 tcp 1040 ------- 0 0.0 3.0 41 69
r 1.02698 10 3 tcp 1040 ------- 0 0.0 3.0 39 65
h 1.02698 3 10 ack 40 ------- 0 3.0 0.0 39 96
+ 1.028452 3 10 ack 40 ------- 0 3.0 0.0 38 95
- 1.034264 0 10 tcp 1040 ------- 0 0.0 3.0 42 72
r 1.035508 10 3 tcp 1040 ------- 0 0.0 3.0 40 68
h 1.035508 3 10 ack 40 ------- 0 3.0 0.0 40 97
+ 1.03698 3 10 ack 40 ------- 0 3.0 0.0 39 96
- 1.042792 0 10 tcp 1040 ------- 0 0.0 3.0 43 73
r 1.044172 10 3 tcp 1040 ------- 0 0.0 3.0 41 69
h 1.044172 3 10 ack 40 ------- 0 3.0 0.0 41 98
+ 1.045508 3 10 ack 40 ------- 0 3.0 0.0 40 97
- 1.05132 0 10 tcp 1040 ------- 0 0.0 3.0 44 82
r 1.0527 10 3 tcp 1040 ------- 0 0.0 3.0 42 72
h 1.0527 3 10 ack 40 ------- 0 3.0 0.0 42 99
+ 1.054172 3 10 ack 40 ------- 0 3.0 0.0 41 98
- 1.059848 0 10 tcp 1040 ------- 0 0.0 3.0 45 83
r 1.061228 10 3 tcp 1040 ------- 0 0.0 3.0 43 73
h 1.061228 3 10 ack 40 ------- 0 3.0 0.0 43 100
+ 1.0627 3 10 ack 40 ------- 0 3.0 0.0 42 99
- 1.068376 0 10 tcp 1040 ------- 0 0.0 3.0 46 85
r 1.069756 10 3 tcp 1040 ------- 0 0.0 3.0 44 82
h 1.069756 3 10 ack 40 ------- 0 3.0 0.0 44 101
+ 1.071228 3 10 ack 40 ------- 0 3.0 0.0 43 100
r 1.078284 10 3 tcp 1040 ------- 0 0.0 3.0 45 83
h 1.078284 3 10 ack 40 ------- 0 3.0 0.0 45 102
+ 1.079756 3 10 ack 40 ------- 0 3.0 0.0 44 101
r 1.086812 10 3 tcp 1040 ------- 0 0.0 3.0 46 85
h 1.086812 3 10 ack 40 ------- 0 3.0 0.0 46 103
h 1.087912 1 10 tcp 1040 ---A--- 0 1.0 3.1 3 104
+ 1.088284 3 10 ack 40 ------- 0 3.0 0.0 45 102
+ 1.096812 3 10 ack 40 ------- 0 3.0 0.0 46 103
+ 1.097912 1 10 tcp 1040 ---A--- 0 1.0 3.1 3 104
- 1.09826 1 10 tcp 1040 ------- 0 1.0 3.1 4 75
- 1.106788 1 10 tcp 1040 ------- 0 1.0 3.1 5 77
r 1.108168 10 3 tcp 1040 ------- 0 1.0 3.1 3 74
h 1.108168 3 10 ack 40 ------- 0 3.1 1.0 3 105
- 1.115316 1 10 tcp 1040 ------- 0 1.0 3.1 6 78
r 1.116696 10 3 tcp 1040 ------- 0 1.0 3.1 4 75
h 1.116696 3 10 ack 40 ------- 0 3.1 1.0 4 106
+ 1.118168 3 10 ack 40 ------- 0 3.1 1.0 3 105
- 1.123844 1 10 tcp 1040 ---A--- 0 1.0 3.1 3 104
r 1.125224 10 3 tcp 1040 ------- 0 1.0 3.1 5 77
h 1.125224 3 10 ack 40 ------- 0 3.1 1.0 5 107
+ 1.126696 3 10 ack 40 ------- 0 3.1 1.0 4 106
h 1.12684 0 10 tcp 1040 ---A--- 0 0.0 3.0 27 108
r 1.133752 10 3 tcp 1040 ------- 0 1.0 3.1 6 78
h 1.133752 3 10 ack 40 ------- 0 3.1 1.0 6 109
+ 1.135224 3 10 ack 40 ------- 0 3.1 1.0 5 107
+ 1.13684 0 10 tcp 1040 ---A--- 0 0.0 3.0 27 108
- 1.13684 0 10 tcp 1040 ---A--- 0 0.0 3.0 27 108
r 1.14228 10 3 tcp 1040 ---A--- 0 1.0 3.1 3 104
h 1.14228 3 10 ack 40 ------- 0 3.1 1.0 6 110
+ 1.143752 3 10 ack 40 ------- 0 3.1 1.0 6 109
+ 1.15228 3 10 ack 40 ------- 0 3.1 1.0 6 110
r 1.155276 10 3 tcp 1040 ---A--- 0 0.0 3.0 27 108
h 1.155276 3 10 ack 40 ------- 0 3.0 0.0 46 111
+ 1.165276 3 10 ack 40 ------- 0 3.0 0.0 46 111
- 1.20526 3 10 ack 40 ------- 0 3.0 0.0 28 84
- 1.205868 3 10 ack 40 ------- 0 3.0 0.0 29 86
- 1.206476 3 10 ack 40 ------- 0 3.0 0.0 30 87
- 1.207084 3 10 ack 40 ------- 0 3.0 0.0 31 88
- 1.207692 3 10 ack 40 ------- 0 3.0 0.0 32 89
- 1.2083 3 10 ack 40 ------- 0 3.0 0.0 33 90
- 1.208908 3 10 ack 40 ------- 0 3.0 0.0 34 91
- 1.209516 3 10 ack 40 ------- 0 3.0 0.0 35 92
- 1.210124 3 10 ack 40 ------- 0 3.0 0.0 36 93
- 1.210732 3 10 ack 40 ------- 0 3.0 0.0 37 94
- 1.21134 3 10 ack 40 ------- 0 3.0 0.0 38 95
- 1.211948 3 10 ack 40 ------- 0 3.0 0.0 39 96
- 1.212556 3 10 ack 40 ------- 0 3.0 0.0 40 97
- 1.213164 3 10 ack 40 ------- 0 3.0 0.0 41 98
- 1.213772 3 10 ack 40 ------- 0 3.0 0.0 42 99
- 1.21438 3 10 ack 40 ------- 0 3.0 0.0 43 100
- 1.214988 3 10 ack 40 ------- 0 3.0 0.0 44 101
r 1.215168 10 0 ack 40 ------- 0 3.0 0.0 27 81
h 1.215168 0 10 tcp 1040 ------- 0 0.0 3.0 28 112
h 1.215168 0 10 tcp 1040 ------- 0 0.0 3.0 29 113
- 1.215596 3 10 ack 40 ------- 0 3.0 0.0 45 102
r 1.215776 10 0 ack 40 ------- 0 3.0 0.0 28 84
h 1.215776 0 10 tcp 1040 ------- 0 0.0 3.0 30 114
h 1.215776 0 10 tcp 1040 ------- 0 0.0 3.0 31 115
- 1.216204 3 10 ack 40 ------- 0 3.0 0.0 46 103
r 1.216384 10 0 ack 40 ------- 0 3.0 0.0 29 86
h 1.216384 0 10 tcp 1040 ------- 0 0.0 3.0 32 116
h 1.216384 0 10 tcp 1040 ------- 0 0.0 3.0 33 117
- 1.216812 3 10 ack 40 ------- 0 3.1 1.0 3 105
r 1.216992 10 0 ack 40 ------- 0 3.0 0.0 30 87
h 1.216992 0 10 tcp 1040 ------- 0 0.0 3.0 34 118
h 1.216992 0 10 tcp 1040 ------- 0 0.0 3.0 35 119
- 1.21742 3 10 ack 40 ------- 0 3.1 1.0 4 106
r 1.2176 10 0 ack 40 ------- 0 3.0 0.0 31 88
h 1.2176 0 10 tcp 1040 ------- 0 0.0 3.0 36 120
h 1.2176 0 10 tcp 1040 ------- 0 0.0 3.0 37 121
- 1.218028 3 10 ack 40 ------- 0 3.1 1.0 5 107
r 1.218208 10 0 ack 40 ------- 0 3.0 0.0 32 89
h 1.218208 0 10 tcp 1040 ------- 0 0.0 3.0 38 122
h 1.218208 0 10 tcp 1040 ------- 0 0.0 3.0 39 123
- 1.218636 3 10 ack 40 ------- 0 3.1 1.0 6 109
r 1.218816 10 0 ack 40 ------- 0 3.0 0.0 33 90
h 1.218816 0 10 tcp 1040 ------- 0 0.0 3.0 40 124
h 1.218816 0 10 tcp 1040 ------- 0 0.0 3.0 41 125
- 1.219244 3 10 ack 40 ------- 0 3.1 1.0 6 110
r 1.219424 10 0 ack 40 ------- 0 3.0 0.0 34 91
h 1.219424 0 10 tcp 1040 ------- 0 0.0 3.0 42 126
h 1.219424 0 10 tcp 1040 ------- 0 0.0 3.0 43 127
- 1.219852 3 10 ack 40 ------- 0 3.0 0.0 46 111
r 1.220032 10 0 ack 40 ------- 0 3.0 0.0 35 92
h 1.220032 0 10 tcp 1040 ------- 0 0.0 3.0 44 128
h 1.220032 0 10 tcp 1040 ------- 0 0.0 3.0 45 129
r 1.22064 10 0 ack 40 ------- 0 3.0 0.0 36 93
h 1.22064 0 10 tcp 1040 ------- 0 0.0 3.0 46 130
r 1.221248 10 0 ack 40 ------- 0 3.0 0.0 37 94
h 1.221248 0 10 tcp 1040 ------- 0 0.0 3.0 47 131
r 1.221856 10 0 ack 40 ------- 0 3.0 0.0 38 95
h 1.221856 0 10 tcp 1040 ------- 0 0.0 3.0 48 132
r 1.222464 10 0 ack 40 ------- 0 3.0 0.0 39 96
h 1.222464 0 10 tcp 1040 ------- 0 0.0 3.0 49 133
r 1.223072 10 0 ack 40 ------- 0 3.0 0.0 40 97
h 1.223072 0 10 tcp 1040 ------- 0 0.0 3.0 50 134
r 1.22368 10 0 ack 40 ------- 0 3.0 0.0 41 98
h 1.22368 0 10 tcp 1040 ------- 0 0.0 3.0 51 135
r 1.224288 10 0 ack 40 ------- 0 3.0 0.0 42 99
h 1.224288 0 10 tcp 1040 ------- 0 0.0 3.0 52 136
r 1.224896 10 0 ack 40 ------- 0 3.0 0.0 43 100
h 1.224896 0 10 tcp 1040 ------- 0 0.0 3.0 53 137
+ 1.225168 0 10 tcp 1040 ------- 0 0.0 3.0 28 112
- 1.225168 0 10 tcp 1040 ------- 0 0.0 3.0 28 112
+ 1.225168 0 10 tcp 1040 ------- 0 0.0 3.0 29 113
r 1.225504 10 0 ack 40 ------- 0 3.0 0.0 44 101
h 1.225504 0 10 tcp 1040 ------- 0 0.0 3.0 54 138
+ 1.225776 0 10 tcp 1040 ------- 0 0.0 3.0 30 114
+ 1.225776 0 10 tcp 1040 ------- 0 0.0 3.0 31 115
r 1.226112 10 0 ack 40 ------- 0 3.0 0.0 45 102
h 1.226112 0 10 tcp 1040 ------- 0 0.0 3.0 55 139
+ 1.226384 0 10 tcp 1040 ------- 0 0.0 3.0 32 116
+ 1.226384 0 10 tcp 1040 ------- 0 0.0 3.0 33 117
r 1.22672 10 0 ack 40 ------- 0 3.0 0.0 46 103
h 1.22672 0 10 tcp 1040 ------- 0 0.0 3.0 56 140
h 1.22672 0 10 tcp 1040 ------- 0 0.0 3.0 57 141
+ 1.226992 0 10 tcp 1040 ------- 0 0.0 3.0 34 118
+ 1.226992 0 10 tcp 1040 ------- 0 0.0 3.0 35 119
r 1.227328 10 1 ack 40 ------- 0 3.1 1.0 3 105
h 1.227328 1 10 tcp 1040 ------- 0 1.0 3.1 4 142
h 1.227328 1 10 tcp 1040 ------- 0 1.0 3.1 5 143
+ 1.2276 0 10 tcp 1040 ------- 0 0.0 3.0 36 120
+ 1.2276 0 10 tcp 1040 ------- 0 0.0 3.0 37 121
r 1.227936 10 1 ack 40 ------- 0 3.1 1.0 4 106
h 1.227936 1 10 tcp 1040 ------- 0 1.0 3.1 6 144
+ 1.228208 0 10 tcp 1040 ------- 0 0.0 3.0 38 122
+ 1.228208 0 10 tcp 1040 ------- 0 0.0 3.0 39 123
r 1.228544 10 1 ack 40 ------- 0 3.1 1.0 5 107
h 1.228544 1 10 tcp 1040 ------- 0 1.0 3.1 7 145
+ 1.228816 0 10 tcp 1040 ------- 0 0.0 3.0 40 124
+ 1.228816 0 10 tcp 1040 ------- 0 0.0 3.0 41 125
r 1.229152 10 1 ack 40 ------- 0 3.1 1.0 6 109
h 1.229152 1 10 tcp 1040 ------- 0 1.0 3.1 8 146
h 1.229152 1 10 tcp 1040 ------- 0 1.0 3.1 9 147
+ 1.229424 0 10 tcp 1040 ------- 0 0.0 3.0 42 126
+ 1.229424 0 10 tcp 1040 ------- 0 0.0 3.0 43 127
r 1.22976 10 1 ack 40 ------- 0 3.1 1.0 6 110
h 1.22976 1 10 tcp 1040 ------- 0 1.0 3.1 10 148
+ 1.230032 0 10 tcp 1040 ------- 0 0.0 3.0 44 128
+ 1.230032 0 10 tcp 1040 ------- 0 0.0 3.0 45 129
r 1.230368 10 0 ack 40 ------- 0 3.0 0.0 46 111
h 1.230368 0 10 tcp 1040 ------- 0 0.0 3.0 58 149
+ 1.23064 0 10 tcp 1040 ------- 0 0.0 3.0 46 130
+ 1.231248 0 10 tcp 1040 ------- 0 0.0 3.0 47 131
+ 1.231856 0 10 tcp 1040 ------- 0 0.0 3.0 48 132
+ 1.232464 0 10 tcp 1040 ------- 0 0.0 3.0 49 133
+ 1.233072 0 10 tcp 1040 ------- 0 0.0 3.0 50 134
+ 1.23368 0 10 tcp 1040 ------- 0 0.0 3.0 51 135
- 1.233696 0 10 tcp 1040 ------- 0 0.0 3.0 29 113
+ 1.234288 0 10 tcp 1040 ------- 0 0.0 3.0 52 136
+ 1.234896 0 10 tcp 1040 ------- 0 0.0 3.0 53 137
+ 1.235504 0 10 tcp 1040 ------- 0 0.0 3.0 54 138
+ 1.236112 0 10 tcp 1040 ------- 0 0.0 3.0 55 139
+ 1.23672 0 10 tcp 1040 ------- 0 0.0 3.0 56 140
+ 1.23672 0 10 tcp 1040 ------- 0 0.0 3.0 57 141
+ 1.237328 1 10 tcp 1040 ------- 0 1.0 3.1 4 142
- 1.237328 1 10 tcp 1040 ------- 0 1.0 3.1 4 142
+ 1.237328 1 10 tcp 1040 ------- 0 1.0 3.1 5 143
+ 1.237936 1 10 tcp 1040 ------- 0 1.0 3.1 6 144
+ 1.238544 1 10 tcp 1040 ------- 0 1.0 3.1 7 145
+ 1.239152 1 10 tcp 1040 ------- 0 1.0 3.1 8 146
+ 1.239152 1 10 tcp 1040 ------- 0 1.0 3.1 9 147
+ 1.23976 1 10 tcp 1040 ------- 0 1.0 3.1 10 148
+ 1.240368 0 10 tcp 1040 ------- 0 0.0 3.0 58 149
- 1.242224 0 10 tcp 1040 ------- 0 0.0 3.0 30 114
r 1.243604 10 3 tcp 1040 ------- 0 0.0 3.0 28 112
h 1.243604 3 10 ack 40 ------- 0 3.0 0.0 46 150
r 1.252132 10 3 tcp 1040 ------- 0 0.0 3.0 29 113
h 1.252132 3 10 ack 40 ------- 0 3.0 0.0 46 151
- 1.253196 1 10 tcp 1040 ------- 0 1.0 3.1 5 143
+ 1.253604 3 10 ack 40 ------- 0 3.0 0.0 46 150
- 1.253604 3 10 ack 40 ------- 0 3.0 0.0 46 150
- 1.26186 1 10 tcp 1040 ------- 0 1.0 3.1 6 144
+ 1.262132 3 10 ack 40 ------- 0 3.0 0.0 46 151
r 1.263104 10 3 tcp 1040 ------- 0 1.0 3.1 4 142
h 1.263104 3 10 ack 40 ------- 0 3.1 1.0 6 152
- 1.270524 1 10 tcp 1040 ------- 0 1.0 3.1 7 145
r 1.271768 10 3 tcp 1040 ------- 0 1.0 3.1 5 143
h 1.271768 3 10 ack 40 ------- 0 3.1 1.0 6 153
+ 1.273104 3 10 ack 40 ------- 0 3.1 1.0 6 152
- 1.279188 1 10 tcp 1040 ------- 0 1.0 3.1 8 146
r 1.280432 10 3 tcp 1040 ------- 0 1.0 3.1 6 144
h 1.280432 3 10 ack 40 ------- 0 3.1 1.0 6 154
+ 1.281768 3 10 ack 40 ------- 0 3.1 1.0 6 153
- 1.288364 1 10 tcp 1040 ------- 0 1.0 3.1 9 147
r 1.289096 10 3 tcp 1040 ------- 0 1.0 3.1 7 145
h 1.289096 3 10 ack 40 ------- 0 3.1 1.0 7 155
+ 1.290432 3 10 ack 40 ------- 0 3.1 1.0 6 154
- 1.297028 1 10 tcp 1040 ------- 0 1.0 3.1 10 148
r 1.298272 10 3 tcp 1040 ------- 0 1.0 3.1 8 146
h 1.298272 3 10 ack 40 ------- 0 3.1 1.0 8 156
+ 1.299096 3 10 ack 40 ------- 0 3.1 1.0 7 155
r 1.306936 10 3 tcp 1040 ------- 0 1.0 3.1 9 147
h 1.306936 3 10 ack 40 ------- 0 3.1 1.0 9 157
+ 1.308272 3 10 ack 40 ------- 0 3.1 1.0 8 156
r 1.316112 10 3 tcp 1040 ------- 0 1.0 3.1 10 148
h 1.316112 3 10 ack 40 ------- 0 3.1 1.0 10 158
+ 1.316936 3 10 ack 40 ------- 0 3.1 1.0 9 157
+ 1.326112 3 10 ack 40 ------- 0 3.1 1.0 10 158
- 1.334084 3 10 ack 40 ------- 0 3.0 0.0 46 151
- 1.334692 3 10 ack 40 ------- 0 3.1 1.0 6 152
- 1.3353 3 10 ack 40 ------- 0 3.1 1.0 6 153
- 1.335908 3 10 ack 40 ------- 0 3.1 1.0 6 154
- 1.336516 3 10 ack 40 ------- 0 3.1 1.0 7 155
- 1.337124 3 10 ack 40 ------- 0 3.1 1.0 8 156
- 1.337732 3 10 ack 40 ------- 0 3.1 1.0 9 157
- 1.33834 3 10 ack 40 ------- 0 3.1 1.0 10 158
r 1.343992 10 0 ack 40 ------- 0 3.0 0.0 46 150
h 1.343992 0 10 tcp 1040 ------- 0 0.0 3.0 59 159
r 1.3446 10 0 ack 40 ------- 0 3.0 0.0 46 151
r 1.345208 10 1 ack 40 ------- 0 3.1 1.0 6 152
h 1.345208 1 10 tcp 1040 ------- 0 1.0 3.1 11 160
r 1.345816 10 1 ack 40 ------- 0 3.1 1.0 6 153
r 1.346424 10 1 ack 40 ------- 0 3.1 1.0 6 154
r 1.347032 10 1 ack 40 ------- 0 3.1 1.0 7 155
r 1.34764 10 1 ack 40 ------- 0 3.1 1.0 8 156
r 1.348248 10 1 ack 40 ------- 0 3.1 1.0 9 157
h 1.348248 1 10 tcp 1040 ------- 0 1.0 3.1 12 161
h 1.348248 1 10 tcp 1040 ------- 0 1.0 3.1 13 162
r 1.348856 10 1 ack 40 ------- 0 3.1 1.0 10 158
h 1.348856 1 10 tcp 1040 ------- 0 1.0 3.1 14 163
- 1.349684 0 10 tcp 1040 ------- 0 0.0 3.0 31 115
+ 1.353992 0 10 tcp 1040 ------- 0 0.0 3.0 59 159
+ 1.355208 1 10 tcp 1040 ------- 0 1.0 3.1 11 160
- 1.355208 1 10 tcp 1040 ------- 0 1.0 3.1 11 160
- 1.358212 0 10 tcp 1040 ------- 0 0.0 3.0 32 116
+ 1.358248 1 10 tcp 1040 ------- 0 1.0 3.1 12 161
+ 1.358248 1 10 tcp 1040 ------- 0 1.0 3.1 13 162
+ 1.358856 1 10 tcp 1040 ------- 0 1.0 3.1 14 163
r 1.359592 10 3 tcp 1040 ------- 0 0.0 3.0 30 114
h 1.359592 3 10 ack 40 ------- 0 3.0 0.0 46 164
r 1.36812 10 3 tcp 1040 ------- 0 0.0 3.0 31 115
h 1.36812 3 10 ack 40 ------- 0 3.0 0.0 46 165
- 1.368544 1 10 tcp 1040 ------- 0 1.0 3.1 12 161
+ 1.369592 3 10 ack 40 ------- 0 3.0 0.0 46 164
- 1.369592 3 10 ack 40 ------- 0 3.0 0.0 46 164
- 1.377204 0 10 tcp 1040 ------- 0 0.0 3.0 33 117
+ 1.37812 3 10 ack 40 ------- 0 3.0 0.0 46 165
r 1.378452 10 3 tcp 1040 ------- 0 1.0 3.1 11 160
h 1.378452 3 10 ack 40 ------- 0 3.1 1.0 11 166
r 1.387112 10 3 tcp 1040 ------- 0 0.0 3.0 32 116
h 1.387112 3 10 ack 40 ------- 0 3.0 0.0 46 167
- 1.388176 0 10 tcp 1040 ------- 0 0.0 3.0 34 118
+ 1.388452 3 10 ack 40 ------- 0 3.1 1.0 11 166
- 1.388916 3 10 ack 40 ------- 0 3.0 0.0 46 165
+ 1.397112 3 10 ack 40 ------- 0 3.0 0.0 46 167
- 1.397712 0 10 tcp 1040 ------- 0 0.0 3.0 35 119
r 1.398084 10 3 tcp 1040 ------- 0 0.0 3.0 33 117
h 1.398084 3 10 ack 40 ------- 0 3.0 0.0 46 168
r 1.398824 10 0 ack 40 ------- 0 3.0 0.0 46 164
r 1.40762 10 3 tcp 1040 ------- 0 0.0 3.0 34 118
h 1.40762 3 10 ack 40 ------- 0 3.0 0.0 46 169
+ 1.408084 3 10 ack 40 ------- 0 3.0 0.0 46 168
- 1.410224 0 10 tcp 1040 ------- 0 0.0 3.0 36 120
+ 1.41762 3 10 ack 40 ------- 0 3.0 0.0 46 169
- 1.4194 0 10 tcp 1040 ------- 0 0.0 3.0 37 121
r 1.420132 10 3 tcp 1040 ------- 0 0.0 3.0 35 119
h 1.420132 3 10 ack 40 ------- 0 3.0 0.0 46 170
- 1.427928 0 10 tcp 1040 ------- 0 0.0 3.0 38 122
r 1.429308 10 3 tcp 1040 ------- 0 0.0 3.0 36 120
h 1.429308 3 10 ack 40 ------- 0 3.0 0.0 46 171
+ 1.430132 3 10 ack 40 ------- 0 3.0 0.0 46 170
- 1.437104 0 10 tcp 1040 ------- 0 0.0 3.0 39 123
r 1.437836 10 3 tcp 1040 ------- 0 0.0 3.0 37 121