+ 0.2 0 1 ping 64 ------- 0 0.0 5.0 -1 0
- 0.2 0 1 ping 64 ------- 0 0.0 5.0 -1 0
r 0.210512 0 1 ping 64 ------- 0 0.0 5.0 -1 0
+ 0.210512 1 2 ping 64 ------- 0 0.0 5.0 -1 0
- 0.210512 1 2 ping 64 ------- 0 0.0 5.0 -1 0
r 0.221024 1 2 ping 64 ------- 0 0.0 5.0 -1 0
+ 0.221024 2 3 ping 64 ------- 0 0.0 5.0 -1 0
- 0.221024 2 3 ping 64 ------- 0 0.0 5.0 -1 0
r 0.231536 2 3 ping 64 ------- 0 0.0 5.0 -1 0
+ 0.231536 3 4 ping 64 ------- 0 0.0 5.0 -1 0
- 0.231536 3 4 ping 64 ------- 0 0.0 5.0 -1 0
r 0.242048 3 4 ping 64 ------- 0 0.0 5.0 -1 0
+ 0.242048 4 5 ping 64 ------- 0 0.0 5.0 -1 0
- 0.242048 4 5 ping 64 ------- 0 0.0 5.0 -1 0
r 0.25256 4 5 ping 64 ------- 0 0.0 5.0 -1 0
+ 0.25256 5 4 ping 64 ------- 0 5.0 0.0 -1 1
- 0.25256 5 4 ping 64 ------- 0 5.0 0.0 -1 1
r 0.263072 5 4 ping 64 ------- 0 5.0 0.0 -1 1
+ 0.263072 4 3 ping 64 ------- 0 5.0 0.0 -1 1
- 0.263072 4 3 ping 64 ------- 0 5.0 0.0 -1 1
r 0.273584 4 3 ping 64 ------- 0 5.0 0.0 -1 1
+ 0.273584 3 2 ping 64 ------- 0 5.0 0.0 -1 1
- 0.273584 3 2 ping 64 ------- 0 5.0 0.0 -1 1
r 0.284096 3 2 ping 64 ------- 0 5.0 0.0 -1 1
+ 0.284096 2 1 ping 64 ------- 0 5.0 0.0 -1 1
- 0.284096 2 1 ping 64 ------- 0 5.0 0.0 -1 1
r 0.294608 2 1 ping 64 ------- 0 5.0 0.0 -1 1
+ 0.294608 1 0 ping 64 ------- 0 5.0 0.0 -1 1
- 0.294608 1 0 ping 64 ------- 0 5.0 0.0 -1 1
r 0.30512 1 0 ping 64 ------- 0 5.0 0.0 -1 1
+ 0.4 5 4 ping 64 ------- 0 5.0 0.0 -1 2
- 0.4 5 4 ping 64 ------- 0 5.0 0.0 -1 2
r 0.410512 5 4 ping 64 ------- 0 5.0 0.0 -1 2
+ 0.410512 4 3 ping 64 ------- 0 5.0 0.0 -1 2
- 0.410512 4 3 ping 64 ------- 0 5.0 0.0 -1 2
r 0.421024 4 3 ping 64 ------- 0 5.0 0.0 -1 2
+ 0.421024 3 2 ping 64 ------- 0 5.0 0.0 -1 2
- 0.421024 3 2 ping 64 ------- 0 5.0 0.0 -1 2
r 0.431536 3 2 ping 64 ------- 0 5.0 0.0 -1 2
+ 0.431536 2 1 ping 64 ------- 0 5.0 0.0 -1 2
- 0.431536 2 1 ping 64 ------- 0 5.0 0.0 -1 2
r 0.442048 2 1 ping 64 ------- 0 5.0 0.0 -1 2
+ 0.442048 1 0 ping 64 ------- 0 5.0 0.0 -1 2
- 0.442048 1 0 ping 64 ------- 0 5.0 0.0 -1 2
r 0.45256 1 0 ping 64 ------- 0 5.0 0.0 -1 2
+ 0.45256 0 1 ping 64 ------- 0 0.0 5.0 -1 3
- 0.45256 0 1 ping 64 ------- 0 0.0 5.0 -1 3
r 0.463072 0 1 ping 64 ------- 0 0.0 5.0 -1 3
+ 0.463072 1 2 ping 64 ------- 0 0.0 5.0 -1 3
- 0.463072 1 2 ping 64 ------- 0 0.0 5.0 -1 3
r 0.473584 1 2 ping 64 ------- 0 0.0 5.0 -1 3
+ 0.473584 2 3 ping 64 ------- 0 0.0 5.0 -1 3
- 0.473584 2 3 ping 64 ------- 0 0.0 5.0 -1 3
r 0.484096 2 3 ping 64 ------- 0 0.0 5.0 -1 3
+ 0.484096 3 4 ping 64 ------- 0 0.0 5.0 -1 3
- 0.484096 3 4 ping 64 ------- 0 0.0 5.0 -1 3
r 0.494608 3 4 ping 64 ------- 0 0.0 5.0 -1 3
+ 0.494608 4 5 ping 64 ------- 0 0.0 5.0 -1 3
- 0.494608 4 5 ping 64 ------- 0 0.0 5.0 -1 3
r 0.50512 4 5 ping 64 ------- 0 0.0 5.0 -1 3
+ 0.6 0 1 ping 64 ------- 0 0.0 5.0 -1 4
- 0.6 0 1 ping 64 ------- 0 0.0 5.0 -1 4
+ 0.6 5 4 ping 64 ------- 0 5.0 0.0 -1 5
- 0.6 5 4 ping 64 ------- 0 5.0 0.0 -1 5
r 0.610512 0 1 ping 64 ------- 0 0.0 5.0 -1 4
+ 0.610512 1 2 ping 64 ------- 0 0.0 5.0 -1 4
- 0.610512 1 2 ping 64 ------- 0 0.0 5.0 -1 4
r 0.610512 5 4 ping 64 ------- 0 5.0 0.0 -1 5
+ 0.610512 4 3 ping 64 ------- 0 5.0 0.0 -1 5
- 0.610512 4 3 ping 64 ------- 0 5.0 0.0 -1 5
r 0.621024 1 2 ping 64 ------- 0 0.0 5.0 -1 4
+ 0.621024 2 3 ping 64 ------- 0 0.0 5.0 -1 4
- 0.621024 2 3 ping 64 ------- 0 0.0 5.0 -1 4
r 0.621024 4 3 ping 64 ------- 0 5.0 0.0 -1 5
+ 0.621024 3 2 ping 64 ------- 0 5.0 0.0 -1 5
- 0.621024 3 2 ping 64 ------- 0 5.0 0.0 -1 5
r 0.631536 2 3 ping 64 ------- 0 0.0 5.0 -1 4
+ 0.631536 3 4 ping 64 ------- 0 0.0 5.0 -1 4
- 0.631536 3 4 ping 64 ------- 0 0.0 5.0 -1 4
r 0.631536 3 2 ping 64 ------- 0 5.0 0.0 -1 5
+ 0.631536 2 1 ping 64 ------- 0 5.0 0.0 -1 5
- 0.631536 2 1 ping 64 ------- 0 5.0 0.0 -1 5
r 0.642048 3 4 ping 64 ------- 0 0.0 5.0 -1 4
+ 0.642048 4 5 ping 64 ------- 0 0.0 5.0 -1 4
- 0.642048 4 5 ping 64 ------- 0 0.0 5.0 -1 4
r 0.642048 2 1 ping 64 ------- 0 5.0 0.0 -1 5
+ 0.642048 1 0 ping 64 ------- 0 5.0 0.0 -1 5
- 0.642048 1 0 ping 64 ------- 0 5.0 0.0 -1 5
r 0.65256 4 5 ping 64 ------- 0 0.0 5.0 -1 4
+ 0.65256 5 4 ping 64 ------- 0 5.0 0.0 -1 6
- 0.65256 5 4 ping 64 ------- 0 5.0 0.0 -1 6
r 0.65256 1 0 ping 64 ------- 0 5.0 0.0 -1 5
+ 0.65256 0 1 ping 64 ------- 0 0.0 5.0 -1 7
- 0.65256 0 1 ping 64 ------- 0 0.0 5.0 -1 7
r 0.663072 5 4 ping 64 ------- 0 5.0 0.0 -1 6
+ 0.663072 4 3 ping 64 ------- 0 5.0 0.0 -1 6
- 0.663072 4 3 ping 64 ------- 0 5.0 0.0 -1 6
r 0.663072 0 1 ping 64 ------- 0 0.0 5.0 -1 7
+ 0.663072 1 2 ping 64 ------- 0 0.0 5.0 -1 7
- 0.663072 1 2 ping 64 ------- 0 0.0 5.0 -1 7
r 0.673584 4 3 ping 64 ------- 0 5.0 0.0 -1 6
+ 0.673584 3 2 ping 64 ------- 0 5.0 0.0 -1 6
- 0.673584 3 2 ping 64 ------- 0 5.0 0.0 -1 6
r 0.673584 1 2 ping 64 ------- 0 0.0 5.0 -1 7
+ 0.673584 2 3 ping 64 ------- 0 0.0 5.0 -1 7
- 0.673584 2 3 ping 64 ------- 0 0.0 5.0 -1 7
r 0.684096 3 2 ping 64 ------- 0 5.0 0.0 -1 6
+ 0.684096 2 1 ping 64 ------- 0 5.0 0.0 -1 6
- 0.684096 2 1 ping 64 ------- 0 5.0 0.0 -1 6
r 0.684096 2 3 ping 64 ------- 0 0.0 5.0 -1 7
+ 0.684096 3 4 ping 64 ------- 0 0.0 5.0 -1 7
- 0.684096 3 4 ping 64 ------- 0 0.0 5.0 -1 7
r 0.694608 2 1 ping 64 ------- 0 5.0 0.0 -1 6
+ 0.694608 1 0 ping 64 ------- 0 5.0 0.0 -1 6
- 0.694608 1 0 ping 64 ------- 0 5.0 0.0 -1 6
r 0.694608 3 4 ping 64 ------- 0 0.0 5.0 -1 7
+ 0.694608 4 5 ping 64 ------- 0 0.0 5.0 -1 7
- 0.694608 4 5 ping 64 ------- 0 0.0 5.0 -1 7
r 0.70512 1 0 ping 64 ------- 0 5.0 0.0 -1 6
r 0.70512 4 5 ping 64 ------- 0 0.0 5.0 -1 7
