+ 0.5 1 2 cbr 500 ------- 0 1.0 3.0 0 0
- 0.5 1 2 cbr 500 ------- 0 1.0 3.0 0 0
+ 0.505 1 2 cbr 500 ------- 0 1.0 3.0 1 1
- 0.505 1 2 cbr 500 ------- 0 1.0 3.0 1 1
+ 0.51 1 2 cbr 500 ------- 0 1.0 3.0 2 2
- 0.51 1 2 cbr 500 ------- 0 1.0 3.0 2 2
r 0.514 1 2 cbr 500 ------- 0 1.0 3.0 0 0
+ 0.514 2 3 cbr 500 ------- 0 1.0 3.0 0 0
- 0.514 2 3 cbr 500 ------- 0 1.0 3.0 0 0
+ 0.515 1 2 cbr 500 ------- 0 1.0 3.0 3 3
- 0.515 1 2 cbr 500 ------- 0 1.0 3.0 3 3
r 0.519 1 2 cbr 500 ------- 0 1.0 3.0 1 1
+ 0.519 2 3 cbr 500 ------- 0 1.0 3.0 1 1
- 0.519 2 3 cbr 500 ------- 0 1.0 3.0 1 1
+ 0.52 1 2 cbr 500 ------- 0 1.0 3.0 4 4
- 0.52 1 2 cbr 500 ------- 0 1.0 3.0 4 4
r 0.524 1 2 cbr 500 ------- 0 1.0 3.0 2 2
+ 0.524 2 3 cbr 500 ------- 0 1.0 3.0 2 2
- 0.524 2 3 cbr 500 ------- 0 1.0 3.0 2 2
+ 0.525 1 2 cbr 500 ------- 0 1.0 3.0 5 5
- 0.525 1 2 cbr 500 ------- 0 1.0 3.0 5 5
r 0.528 2 3 cbr 500 ------- 0 1.0 3.0 0 0
r 0.529 1 2 cbr 500 ------- 0 1.0 3.0 3 3
+ 0.529 2 3 cbr 500 ------- 0 1.0 3.0 3 3
- 0.529 2 3 cbr 500 ------- 0 1.0 3.0 3 3
+ 0.53 1 2 cbr 500 ------- 0 1.0 3.0 6 6
- 0.53 1 2 cbr 500 ------- 0 1.0 3.0 6 6
r 0.533 2 3 cbr 500 ------- 0 1.0 3.0 1 1
r 0.534 1 2 cbr 500 ------- 0 1.0 3.0 4 4
+ 0.534 2 3 cbr 500 ------- 0 1.0 3.0 4 4
- 0.534 2 3 cbr 500 ------- 0 1.0 3.0 4 4
+ 0.535 1 2 cbr 500 ------- 0 1.0 3.0 7 7
- 0.535 1 2 cbr 500 ------- 0 1.0 3.0 7 7
r 0.538 2 3 cbr 500 ------- 0 1.0 3.0 2 2
r 0.539 1 2 cbr 500 ------- 0 1.0 3.0 5 5
+ 0.539 2 3 cbr 500 ------- 0 1.0 3.0 5 5
- 0.539 2 3 cbr 500 ------- 0 1.0 3.0 5 5
+ 0.54 1 2 cbr 500 ------- 0 1.0 3.0 8 8
- 0.54 1 2 cbr 500 ------- 0 1.0 3.0 8 8
r 0.543 2 3 cbr 500 ------- 0 1.0 3.0 3 3
r 0.544 1 2 cbr 500 ------- 0 1.0 3.0 6 6
+ 0.544 2 3 cbr 500 ------- 0 1.0 3.0 6 6
- 0.544 2 3 cbr 500 ------- 0 1.0 3.0 6 6
+ 0.545 1 2 cbr 500 ------- 0 1.0 3.0 9 9
- 0.545 1 2 cbr 500 ------- 0 1.0 3.0 9 9
r 0.548 2 3 cbr 500 ------- 0 1.0 3.0 4 4
r 0.549 1 2 cbr 500 ------- 0 1.0 3.0 7 7
+ 0.549 2 3 cbr 500 ------- 0 1.0 3.0 7 7
- 0.549 2 3 cbr 500 ------- 0 1.0 3.0 7 7
+ 0.55 1 2 cbr 500 ------- 0 1.0 3.0 10 10
- 0.55 1 2 cbr 500 ------- 0 1.0 3.0 10 10
r 0.553 2 3 cbr 500 ------- 0 1.0 3.0 5 5
r 0.554 1 2 cbr 500 ------- 0 1.0 3.0 8 8
+ 0.554 2 3 cbr 500 ------- 0 1.0 3.0 8 8
- 0.554 2 3 cbr 500 ------- 0 1.0 3.0 8 8
+ 0.555 1 2 cbr 500 ------- 0 1.0 3.0 11 11
- 0.555 1 2 cbr 500 ------- 0 1.0 3.0 11 11
r 0.558 2 3 cbr 500 ------- 0 1.0 3.0 6 6
r 0.559 1 2 cbr 500 ------- 0 1.0 3.0 9 9
+ 0.559 2 3 cbr 500 ------- 0 1.0 3.0 9 9
- 0.559 2 3 cbr 500 ------- 0 1.0 3.0 9 9
+ 0.56 1 2 cbr 500 ------- 0 1.0 3.0 12 12
- 0.56 1 2 cbr 500 ------- 0 1.0 3.0 12 12
r 0.563 2 3 cbr 500 ------- 0 1.0 3.0 7 7
r 0.564 1 2 cbr 500 ------- 0 1.0 3.0 10 10
+ 0.564 2 3 cbr 500 ------- 0 1.0 3.0 10 10
- 0.564 2 3 cbr 500 ------- 0 1.0 3.0 10 10
+ 0.565 1 2 cbr 500 ------- 0 1.0 3.0 13 13
- 0.565 1 2 cbr 500 ------- 0 1.0 3.0 13 13
r 0.568 2 3 cbr 500 ------- 0 1.0 3.0 8 8
r 0.569 1 2 cbr 500 ------- 0 1.0 3.0 11 11
+ 0.569 2 3 cbr 500 ------- 0 1.0 3.0 11 11
- 0.569 2 3 cbr 500 ------- 0 1.0 3.0 11 11
+ 0.57 1 2 cbr 500 ------- 0 1.0 3.0 14 14
- 0.57 1 2 cbr 500 ------- 0 1.0 3.0 14 14
r 0.573 2 3 cbr 500 ------- 0 1.0 3.0 9 9
r 0.574 1 2 cbr 500 ------- 0 1.0 3.0 12 12
+ 0.574 2 3 cbr 500 ------- 0 1.0 3.0 12 12
- 0.574 2 3 cbr 500 ------- 0 1.0 3.0 12 12
+ 0.575 1 2 cbr 500 ------- 0 1.0 3.0 15 15
- 0.575 1 2 cbr 500 ------- 0 1.0 3.0 15 15
r 0.578 2 3 cbr 500 ------- 0 1.0 3.0 10 10
r 0.579 1 2 cbr 500 ------- 0 1.0 3.0 13 13
+ 0.579 2 3 cbr 500 ------- 0 1.0 3.0 13 13
- 0.579 2 3 cbr 500 ------- 0 1.0 3.0 13 13
+ 0.58 1 2 cbr 500 ------- 0 1.0 3.0 16 16
- 0.58 1 2 cbr 500 ------- 0 1.0 3.0 16 16
r 0.583 2 3 cbr 500 ------- 0 1.0 3.0 11 11
r 0.584 1 2 cbr 500 ------- 0 1.0 3.0 14 14
+ 0.584 2 3 cbr 500 ------- 0 1.0 3.0 14 14
- 0.584 2 3 cbr 500 ------- 0 1.0 3.0 14 14
+ 0.585 1 2 cbr 500 ------- 0 1.0 3.0 17 17
- 0.585 1 2 cbr 500 ------- 0 1.0 3.0 17 17
r 0.588 2 3 cbr 500 ------- 0 1.0 3.0 12 12
r 0.589 1 2 cbr 500 ------- 0 1.0 3.0 15 15
+ 0.589 2 3 cbr 500 ------- 0 1.0 3.0 15 15
- 0.589 2 3 cbr 500 ------- 0 1.0 3.0 15 15
+ 0.59 1 2 cbr 500 ------- 0 1.0 3.0 18 18
- 0.59 1 2 cbr 500 ------- 0 1.0 3.0 18 18
r 0.593 2 3 cbr 500 ------- 0 1.0 3.0 13 13
r 0.594 1 2 cbr 500 ------- 0 1.0 3.0 16 16
+ 0.594 2 3 cbr 500 ------- 0 1.0 3.0 16 16
- 0.594 2 3 cbr 500 ------- 0 1.0 3.0 16 16
+ 0.595 1 2 cbr 500 ------- 0 1.0 3.0 19 19
- 0.595 1 2 cbr 500 ------- 0 1.0 3.0 19 19
r 0.598 2 3 cbr 500 ------- 0 1.0 3.0 14 14
r 0.599 1 2 cbr 500 ------- 0 1.0 3.0 17 17
+ 0.599 2 3 cbr 500 ------- 0 1.0 3.0 17 17
- 0.599 2 3 cbr 500 ------- 0 1.0 3.0 17 17
+ 0.6 1 2 cbr 500 ------- 0 1.0 3.0 20 20
- 0.6 1 2 cbr 500 ------- 0 1.0 3.0 20 20
r 0.603 2 3 cbr 500 ------- 0 1.0 3.0 15 15
r 0.604 1 2 cbr 500 ------- 0 1.0 3.0 18 18
+ 0.604 2 3 cbr 500 ------- 0 1.0 3.0 18 18
- 0.604 2 3 cbr 500 ------- 0 1.0 3.0 18 18
+ 0.605 1 2 cbr 500 ------- 0 1.0 3.0 21 21
- 0.605 1 2 cbr 500 ------- 0 1.0 3.0 21 21
r 0.608 2 3 cbr 500 ------- 0 1.0 3.0 16 16
r 0.609 1 2 cbr 500 ------- 0 1.0 3.0 19 19
+ 0.609 2 3 cbr 500 ------- 0 1.0 3.0 19 19
- 0.609 2 3 cbr 500 ------- 0 1.0 3.0 19 19
+ 0.61 1 2 cbr 500 ------- 0 1.0 3.0 22 22
- 0.61 1 2 cbr 500 ------- 0 1.0 3.0 22 22
r 0.613 2 3 cbr 500 ------- 0 1.0 3.0 17 17
r 0.614 1 2 cbr 500 ------- 0 1.0 3.0 20 20
+ 0.614 2 3 cbr 500 ------- 0 1.0 3.0 20 20
- 0.614 2 3 cbr 500 ------- 0 1.0 3.0 20 20
+ 0.615 1 2 cbr 500 ------- 0 1.0 3.0 23 23
- 0.615 1 2 cbr 500 ------- 0 1.0 3.0 23 23
r 0.618 2 3 cbr 500 ------- 0 1.0 3.0 18 18
r 0.619 1 2 cbr 500 ------- 0 1.0 3.0 21 21
+ 0.619 2 3 cbr 500 ------- 0 1.0 3.0 21 21
- 0.619 2 3 cbr 500 ------- 0 1.0 3.0 21 21
+ 0.62 1 2 cbr 500 ------- 0 1.0 3.0 24 24
- 0.62 1 2 cbr 500 ------- 0 1.0 3.0 24 24
r 0.623 2 3 cbr 500 ------- 0 1.0 3.0 19 19
r 0.624 1 2 cbr 500 ------- 0 1.0 3.0 22 22
+ 0.624 2 3 cbr 500 ------- 0 1.0 3.0 22 22
- 0.624 2 3 cbr 500 ------- 0 1.0 3.0 22 22
+ 0.625 1 2 cbr 500 ------- 0 1.0 3.0 25 25
- 0.625 1 2 cbr 500 ------- 0 1.0 3.0 25 25
r 0.628 2 3 cbr 500 ------- 0 1.0 3.0 20 20
r 0.629 1 2 cbr 500 ------- 0 1.0 3.0 23 23
+ 0.629 2 3 cbr 500 ------- 0 1.0 3.0 23 23
- 0.629 2 3 cbr 500 ------- 0 1.0 3.0 23 23
+ 0.63 1 2 cbr 500 ------- 0 1.0 3.0 26 26
- 0.63 1 2 cbr 500 ------- 0 1.0 3.0 26 26
r 0.633 2 3 cbr 500 ------- 0 1.0 3.0 21 21
r 0.634 1 2 cbr 500 ------- 0 1.0 3.0 24 24
+ 0.634 2 3 cbr 500 ------- 0 1.0 3.0 24 24
- 0.634 2 3 cbr 500 ------- 0 1.0 3.0 24 24
+ 0.635 1 2 cbr 500 ------- 0 1.0 3.0 27 27
- 0.635 1 2 cbr 500 ------- 0 1.0 3.0 27 27
r 0.638 2 3 cbr 500 ------- 0 1.0 3.0 22 22
r 0.639 1 2 cbr 500 ------- 0 1.0 3.0 25 25
+ 0.639 2 3 cbr 500 ------- 0 1.0 3.0 25 25
- 0.639 2 3 cbr 500 ------- 0 1.0 3.0 25 25
+ 0.64 1 2 cbr 500 ------- 0 1.0 3.0 28 28
- 0.64 1 2 cbr 500 ------- 0 1.0 3.0 28 28
r 0.643 2 3 cbr 500 ------- 0 1.0 3.0 23 23
r 0.644 1 2 cbr 500 ------- 0 1.0 3.0 26 26
+ 0.644 2 3 cbr 500 ------- 0 1.0 3.0 26 26
- 0.644 2 3 cbr 500 ------- 0 1.0 3.0 26 26
+ 0.645 1 2 cbr 500 ------- 0 1.0 3.0 29 29
- 0.645 1 2 cbr 500 ------- 0 1.0 3.0 29 29
r 0.648 2 3 cbr 500 ------- 0 1.0 3.0 24 24
r 0.649 1 2 cbr 500 ------- 0 1.0 3.0 27 27
+ 0.649 2 3 cbr 500 ------- 0 1.0 3.0 27 27
- 0.649 2 3 cbr 500 ------- 0 1.0 3.0 27 27
+ 0.65 1 2 cbr 500 ------- 0 1.0 3.0 30 30
- 0.65 1 2 cbr 500 ------- 0 1.0 3.0 30 30
r 0.653 2 3 cbr 500 ------- 0 1.0 3.0 25 25
r 0.654 1 2 cbr 500 ------- 0 1.0 3.0 28 28
+ 0.654 2 3 cbr 500 ------- 0 1.0 3.0 28 28
- 0.654 2 3 cbr 500 ------- 0 1.0 3.0 28 28
+ 0.655 1 2 cbr 500 ------- 0 1.0 3.0 31 31
- 0.655 1 2 cbr 500 ------- 0 1.0 3.0 31 31
r 0.658 2 3 cbr 500 ------- 0 1.0 3.0 26 26
r 0.659 1 2 cbr 500 ------- 0 1.0 3.0 29 29
+ 0.659 2 3 cbr 500 ------- 0 1.0 3.0 29 29
- 0.659 2 3 cbr 500 ------- 0 1.0 3.0 29 29
+ 0.66 1 2 cbr 500 ------- 0 1.0 3.0 32 32
- 0.66 1 2 cbr 500 ------- 0 1.0 3.0 32 32
r 0.663 2 3 cbr 500 ------- 0 1.0 3.0 27 27
r 0.664 1 2 cbr 500 ------- 0 1.0 3.0 30 30
+ 0.664 2 3 cbr 500 ------- 0 1.0 3.0 30 30
- 0.664 2 3 cbr 500 ------- 0 1.0 3.0 30 30
+ 0.665 1 2 cbr 500 ------- 0 1.0 3.0 33 33
- 0.665 1 2 cbr 500 ------- 0 1.0 3.0 33 33
r 0.668 2 3 cbr 500 ------- 0 1.0 3.0 28 28
r 0.669 1 2 cbr 500 ------- 0 1.0 3.0 31 31
+ 0.669 2 3 cbr 500 ------- 0 1.0 3.0 31 31
- 0.669 2 3 cbr 500 ------- 0 1.0 3.0 31 31
+ 0.67 1 2 cbr 500 ------- 0 1.0 3.0 34 34
- 0.67 1 2 cbr 500 ------- 0 1.0 3.0 34 34
r 0.673 2 3 cbr 500 ------- 0 1.0 3.0 29 29
r 0.674 1 2 cbr 500 ------- 0 1.0 3.0 32 32
+ 0.674 2 3 cbr 500 ------- 0 1.0 3.0 32 32
- 0.674 2 3 cbr 500 ------- 0 1.0 3.0 32 32
+ 0.675 1 2 cbr 500 ------- 0 1.0 3.0 35 35
- 0.675 1 2 cbr 500 ------- 0 1.0 3.0 35 35
r 0.678 2 3 cbr 500 ------- 0 1.0 3.0 30 30
r 0.679 1 2 cbr 500 ------- 0 1.0 3.0 33 33
+ 0.679 2 3 cbr 500 ------- 0 1.0 3.0 33 33
- 0.679 2 3 cbr 500 ------- 0 1.0 3.0 33 33
+ 0.68 1 2 cbr 500 ------- 0 1.0 3.0 36 36
- 0.68 1 2 cbr 500 ------- 0 1.0 3.0 36 36
r 0.683 2 3 cbr 500 ------- 0 1.0 3.0 31 31
r 0.684 1 2 cbr 500 ------- 0 1.0 3.0 34 34
+ 0.684 2 3 cbr 500 ------- 0 1.0 3.0 34 34
- 0.684 2 3 cbr 500 ------- 0 1.0 3.0 34 34
+ 0.685 1 2 cbr 500 ------- 0 1.0 3.0 37 37
- 0.685 1 2 cbr 500 ------- 0 1.0 3.0 37 37
r 0.688 2 3 cbr 500 ------- 0 1.0 3.0 32 32
r 0.689 1 2 cbr 500 ------- 0 1.0 3.0 35 35
+ 0.689 2 3 cbr 500 ------- 0 1.0 3.0 35 35
- 0.689 2 3 cbr 500 ------- 0 1.0 3.0 35 35
+ 0.69 1 2 cbr 500 ------- 0 1.0 3.0 38 38
- 0.69 1 2 cbr 500 ------- 0 1.0 3.0 38 38
r 0.693 2 3 cbr 500 ------- 0 1.0 3.0 33 33
r 0.694 1 2 cbr 500 ------- 0 1.0 3.0 36 36
+ 0.694 2 3 cbr 500 ------- 0 1.0 3.0 36 36
- 0.694 2 3 cbr 500 ------- 0 1.0 3.0 36 36
+ 0.695 1 2 cbr 500 ------- 0 1.0 3.0 39 39
- 0.695 1 2 cbr 500 ------- 0 1.0 3.0 39 39
r 0.698 2 3 cbr 500 ------- 0 1.0 3.0 34 34
r 0.699 1 2 cbr 500 ------- 0 1.0 3.0 37 37
+ 0.699 2 3 cbr 500 ------- 0 1.0 3.0 37 37
- 0.699 2 3 cbr 500 ------- 0 1.0 3.0 37 37
+ 0.7 1 2 cbr 500 ------- 0 1.0 3.0 40 40
- 0.7 1 2 cbr 500 ------- 0 1.0 3.0 40 40
r 0.703 2 3 cbr 500 ------- 0 1.0 3.0 35 35
r 0.704 1 2 cbr 500 ------- 0 1.0 3.0 38 38
+ 0.704 2 3 cbr 500 ------- 0 1.0 3.0 38 38
- 0.704 2 3 cbr 500 ------- 0 1.0 3.0 38 38
+ 0.705 1 2 cbr 500 ------- 0 1.0 3.0 41 41
- 0.705 1 2 cbr 500 ------- 0 1.0 3.0 41 41
r 0.708 2 3 cbr 500 ------- 0 1.0 3.0 36 36
r 0.709 1 2 cbr 500 ------- 0 1.0 3.0 39 39
+ 0.709 2 3 cbr 500 ------- 0 1.0 3.0 39 39
- 0.709 2 3 cbr 500 ------- 0 1.0 3.0 39 39
+ 0.71 1 2 cbr 500 ------- 0 1.0 3.0 42 42
- 0.71 1 2 cbr 500 ------- 0 1.0 3.0 42 42
r 0.713 2 3 cbr 500 ------- 0 1.0 3.0 37 37
r 0.714 1 2 cbr 500 ------- 0 1.0 3.0 40 40
+ 0.714 2 3 cbr 500 ------- 0 1.0 3.0 40 40
- 0.714 2 3 cbr 500 ------- 0 1.0 3.0 40 40
+ 0.715 1 2 cbr 500 ------- 0 1.0 3.0 43 43
- 0.715 1 2 cbr 500 ------- 0 1.0 3.0 43 43
r 0.718 2 3 cbr 500 ------- 0 1.0 3.0 38 38
r 0.719 1 2 cbr 500 ------- 0 1.0 3.0 41 41
+ 0.719 2 3 cbr 500 ------- 0 1.0 3.0 41 41
- 0.719 2 3 cbr 500 ------- 0 1.0 3.0 41 41
+ 0.72 1 2 cbr 500 ------- 0 1.0 3.0 44 44
- 0.72 1 2 cbr 500 ------- 0 1.0 3.0 44 44
r 0.723 2 3 cbr 500 ------- 0 1.0 3.0 39 39
r 0.724 1 2 cbr 500 ------- 0 1.0 3.0 42 42
+ 0.724 2 3 cbr 500 ------- 0 1.0 3.0 42 42
- 0.724 2 3 cbr 500 ------- 0 1.0 3.0 42 42
+ 0.725 1 2 cbr 500 ------- 0 1.0 3.0 45 45
- 0.725 1 2 cbr 500 ------- 0 1.0 3.0 45 45
r 0.728 2 3 cbr 500 ------- 0 1.0 3.0 40 40
r 0.729 1 2 cbr 500 ------- 0 1.0 3.0 43 43
+ 0.729 2 3 cbr 500 ------- 0 1.0 3.0 43 43
- 0.729 2 3 cbr 500 ------- 0 1.0 3.0 43 43
+ 0.73 1 2 cbr 500 ------- 0 1.0 3.0 46 46
- 0.73 1 2 cbr 500 ------- 0 1.0 3.0 46 46
r 0.733 2 3 cbr 500 ------- 0 1.0 3.0 41 41
r 0.734 1 2 cbr 500 ------- 0 1.0 3.0 44 44
+ 0.734 2 3 cbr 500 ------- 0 1.0 3.0 44 44
- 0.734 2 3 cbr 500 ------- 0 1.0 3.0 44 44
+ 0.735 1 2 cbr 500 ------- 0 1.0 3.0 47 47
- 0.735 1 2 cbr 500 ------- 0 1.0 3.0 47 47
r 0.738 2 3 cbr 500 ------- 0 1.0 3.0 42 42
r 0.739 1 2 cbr 500 ------- 0 1.0 3.0 45 45
+ 0.739 2 3 cbr 500 ------- 0 1.0 3.0 45 45
- 0.739 2 3 cbr 500 ------- 0 1.0 3.0 45 45
+ 0.74 1 2 cbr 500 ------- 0 1.0 3.0 48 48
- 0.74 1 2 cbr 500 ------- 0 1.0 3.0 48 48
r 0.743 2 3 cbr 500 ------- 0 1.0 3.0 43 43
r 0.744 1 2 cbr 500 ------- 0 1.0 3.0 46 46
+ 0.744 2 3 cbr 500 ------- 0 1.0 3.0 46 46
- 0.744 2 3 cbr 500 ------- 0 1.0 3.0 46 46
+ 0.745 1 2 cbr 500 ------- 0 1.0 3.0 49 49
- 0.745 1 2 cbr 500 ------- 0 1.0 3.0 49 49
r 0.748 2 3 cbr 500 ------- 0 1.0 3.0 44 44
r 0.749 1 2 cbr 500 ------- 0 1.0 3.0 47 47
+ 0.749 2 3 cbr 500 ------- 0 1.0 3.0 47 47
- 0.749 2 3 cbr 500 ------- 0 1.0 3.0 47 47
+ 0.75 0 2 tcp 40 ------- 0 0.0 3.1 0 50
- 0.75 0 2 tcp 40 ------- 0 0.0 3.1 0 50
+ 0.75 1 2 cbr 500 ------- 0 1.0 3.0 50 51
- 0.75 1 2 cbr 500 ------- 0 1.0 3.0 50 51
r 0.753 2 3 cbr 500 ------- 0 1.0 3.0 45 45
r 0.754 1 2 cbr 500 ------- 0 1.0 3.0 48 48
+ 0.754 2 3 cbr 500 ------- 0 1.0 3.0 48 48
- 0.754 2 3 cbr 500 ------- 0 1.0 3.0 48 48
+ 0.755 1 2 cbr 500 ------- 0 1.0 3.0 51 52
- 0.755 1 2 cbr 500 ------- 0 1.0 3.0 51 52
r 0.758 2 3 cbr 500 ------- 0 1.0 3.0 46 46
r 0.759 1 2 cbr 500 ------- 0 1.0 3.0 49 49
+ 0.759 2 3 cbr 500 ------- 0 1.0 3.0 49 49
- 0.759 2 3 cbr 500 ------- 0 1.0 3.0 49 49
+ 0.76 1 2 cbr 500 ------- 0 1.0 3.0 52 53
- 0.76 1 2 cbr 500 ------- 0 1.0 3.0 52 53
r 0.76032 0 2 tcp 40 ------- 0 0.0 3.1 0 50
+ 0.76032 2 3 tcp 40 ------- 0 0.0 3.1 0 50
r 0.763 2 3 cbr 500 ------- 0 1.0 3.0 47 47
- 0.763 2 3 tcp 40 ------- 0 0.0 3.1 0 50
r 0.764 1 2 cbr 500 ------- 0 1.0 3.0 50 51
+ 0.764 2 3 cbr 500 ------- 0 1.0 3.0 50 51
- 0.764 2 3 cbr 500 ------- 0 1.0 3.0 50 51
+ 0.765 1 2 cbr 500 ------- 0 1.0 3.0 53 54
- 0.765 1 2 cbr 500 ------- 0 1.0 3.0 53 54
r 0.768 2 3 cbr 500 ------- 0 1.0 3.0 48 48
r 0.769 1 2 cbr 500 ------- 0 1.0 3.0 51 52
+ 0.769 2 3 cbr 500 ------- 0 1.0 3.0 51 52
- 0.769 2 3 cbr 500 ------- 0 1.0 3.0 51 52
+ 0.77 1 2 cbr 500 ------- 0 1.0 3.0 54 55
- 0.77 1 2 cbr 500 ------- 0 1.0 3.0 54 55
r 0.773 2 3 cbr 500 ------- 0 1.0 3.0 49 49
r 0.77332 2 3 tcp 40 ------- 0 0.0 3.1 0 50
+ 0.77332 3 2 ack 40 ------- 0 3.1 0.0 0 56
- 0.77332 3 2 ack 40 ------- 0 3.1 0.0 0 56
r 0.774 1 2 cbr 500 ------- 0 1.0 3.0 52 53
+ 0.774 2 3 cbr 500 ------- 0 1.0 3.0 52 53
- 0.774 2 3 cbr 500 ------- 0 1.0 3.0 52 53
+ 0.775 1 2 cbr 500 ------- 0 1.0 3.0 55 57
- 0.775 1 2 cbr 500 ------- 0 1.0 3.0 55 57
r 0.778 2 3 cbr 500 ------- 0 1.0 3.0 50 51
r 0.779 1 2 cbr 500 ------- 0 1.0 3.0 53 54
+ 0.779 2 3 cbr 500 ------- 0 1.0 3.0 53 54
- 0.779 2 3 cbr 500 ------- 0 1.0 3.0 53 54
+ 0.78 1 2 cbr 500 ------- 0 1.0 3.0 56 58
- 0.78 1 2 cbr 500 ------- 0 1.0 3.0 56 58
r 0.783 2 3 cbr 500 ------- 0 1.0 3.0 51 52
r 0.78364 3 2 ack 40 ------- 0 3.1 0.0 0 56
+ 0.78364 2 0 ack 40 ------- 0 3.1 0.0 0 56
- 0.78364 2 0 ack 40 ------- 0 3.1 0.0 0 56
r 0.784 1 2 cbr 500 ------- 0 1.0 3.0 54 55
+ 0.784 2 3 cbr 500 ------- 0 1.0 3.0 54 55
- 0.784 2 3 cbr 500 ------- 0 1.0 3.0 54 55
+ 0.785 1 2 cbr 500 ------- 0 1.0 3.0 57 59
- 0.785 1 2 cbr 500 ------- 0 1.0 3.0 57 59
r 0.788 2 3 cbr 500 ------- 0 1.0 3.0 52 53
r 0.789 1 2 cbr 500 ------- 0 1.0 3.0 55 57
+ 0.789 2 3 cbr 500 ------- 0 1.0 3.0 55 57
- 0.789 2 3 cbr 500 ------- 0 1.0 3.0 55 57
+ 0.79 1 2 cbr 500 ------- 0 1.0 3.0 58 60
- 0.79 1 2 cbr 500 ------- 0 1.0 3.0 58 60
r 0.793 2 3 cbr 500 ------- 0 1.0 3.0 53 54
r 0.79396 2 0 ack 40 ------- 0 3.1 0.0 0 56
+ 0.79396 0 2 tcp 1040 ------- 0 0.0 3.1 1 61
- 0.79396 0 2 tcp 1040 ------- 0 0.0 3.1 1 61
+ 0.79396 0 2 tcp 1040 ------- 0 0.0 3.1 2 62
r 0.794 1 2 cbr 500 ------- 0 1.0 3.0 56 58
+ 0.794 2 3 cbr 500 ------- 0 1.0 3.0 56 58
- 0.794 2 3 cbr 500 ------- 0 1.0 3.0 56 58
+ 0.795 1 2 cbr 500 ------- 0 1.0 3.0 59 63
- 0.795 1 2 cbr 500 ------- 0 1.0 3.0 59 63
r 0.798 2 3 cbr 500 ------- 0 1.0 3.0 54 55
r 0.799 1 2 cbr 500 ------- 0 1.0 3.0 57 59
+ 0.799 2 3 cbr 500 ------- 0 1.0 3.0 57 59
- 0.799 2 3 cbr 500 ------- 0 1.0 3.0 57 59
+ 0.8 1 2 cbr 500 ------- 0 1.0 3.0 60 64
- 0.8 1 2 cbr 500 ------- 0 1.0 3.0 60 64
- 0.80228 0 2 tcp 1040 ------- 0 0.0 3.1 2 62
r 0.803 2 3 cbr 500 ------- 0 1.0 3.0 55 57
r 0.804 1 2 cbr 500 ------- 0 1.0 3.0 58 60
+ 0.804 2 3 cbr 500 ------- 0 1.0 3.0 58 60
- 0.804 2 3 cbr 500 ------- 0 1.0 3.0 58 60
+ 0.805 1 2 cbr 500 ------- 0 1.0 3.0 61 65
- 0.805 1 2 cbr 500 ------- 0 1.0 3.0 61 65
r 0.808 2 3 cbr 500 ------- 0 1.0 3.0 56 58
r 0.809 1 2 cbr 500 ------- 0 1.0 3.0 59 63
+ 0.809 2 3 cbr 500 ------- 0 1.0 3.0 59 63
- 0.809 2 3 cbr 500 ------- 0 1.0 3.0 59 63
+ 0.81 1 2 cbr 500 ------- 0 1.0 3.0 62 66
- 0.81 1 2 cbr 500 ------- 0 1.0 3.0 62 66
r 0.81228 0 2 tcp 1040 ------- 0 0.0 3.1 1 61
+ 0.81228 2 3 tcp 1040 ------- 0 0.0 3.1 1 61
r 0.813 2 3 cbr 500 ------- 0 1.0 3.0 57 59
- 0.813 2 3 tcp 1040 ------- 0 0.0 3.1 1 61
r 0.814 1 2 cbr 500 ------- 0 1.0 3.0 60 64
+ 0.814 2 3 cbr 500 ------- 0 1.0 3.0 60 64
+ 0.815 1 2 cbr 500 ------- 0 1.0 3.0 63 67
- 0.815 1 2 cbr 500 ------- 0 1.0 3.0 63 67
r 0.818 2 3 cbr 500 ------- 0 1.0 3.0 58 60
r 0.819 1 2 cbr 500 ------- 0 1.0 3.0 61 65
+ 0.819 2 3 cbr 500 ------- 0 1.0 3.0 61 65
+ 0.82 1 2 cbr 500 ------- 0 1.0 3.0 64 68
- 0.82 1 2 cbr 500 ------- 0 1.0 3.0 64 68
r 0.8206 0 2 tcp 1040 ------- 0 0.0 3.1 2 62
+ 0.8206 2 3 tcp 1040 ------- 0 0.0 3.1 2 62
- 0.82132 2 3 cbr 500 ------- 0 1.0 3.0 60 64
r 0.823 2 3 cbr 500 ------- 0 1.0 3.0 59 63
r 0.824 1 2 cbr 500 ------- 0 1.0 3.0 62 66
+ 0.824 2 3 cbr 500 ------- 0 1.0 3.0 62 66
+ 0.825 1 2 cbr 500 ------- 0 1.0 3.0 65 69
- 0.825 1 2 cbr 500 ------- 0 1.0 3.0 65 69
- 0.82532 2 3 cbr 500 ------- 0 1.0 3.0 61 65
r 0.829 1 2 cbr 500 ------- 0 1.0 3.0 63 67
+ 0.829 2 3 cbr 500 ------- 0 1.0 3.0 63 67
- 0.82932 2 3 tcp 1040 ------- 0 0.0 3.1 2 62
+ 0.83 1 2 cbr 500 ------- 0 1.0 3.0 66 70
- 0.83 1 2 cbr 500 ------- 0 1.0 3.0 66 70
r 0.83132 2 3 tcp 1040 ------- 0 0.0 3.1 1 61
+ 0.83132 3 2 ack 40 ------- 0 3.1 0.0 1 71
- 0.83132 3 2 ack 40 ------- 0 3.1 0.0 1 71
r 0.834 1 2 cbr 500 ------- 0 1.0 3.0 64 68
+ 0.834 2 3 cbr 500 ------- 0 1.0 3.0 64 68
+ 0.835 1 2 cbr 500 ------- 0 1.0 3.0 67 72
- 0.835 1 2 cbr 500 ------- 0 1.0 3.0 67 72
r 0.83532 2 3 cbr 500 ------- 0 1.0 3.0 60 64
- 0.83764 2 3 cbr 500 ------- 0 1.0 3.0 62 66
r 0.839 1 2 cbr 500 ------- 0 1.0 3.0 65 69
+ 0.839 2 3 cbr 500 ------- 0 1.0 3.0 65 69
r 0.83932 2 3 cbr 500 ------- 0 1.0 3.0 61 65
+ 0.84 1 2 cbr 500 ------- 0 1.0 3.0 68 73
- 0.84 1 2 cbr 500 ------- 0 1.0 3.0 68 73
r 0.84164 3 2 ack 40 ------- 0 3.1 0.0 1 71
+ 0.84164 2 0 ack 40 ------- 0 3.1 0.0 1 71
- 0.84164 2 0 ack 40 ------- 0 3.1 0.0 1 71
- 0.84164 2 3 cbr 500 ------- 0 1.0 3.0 63 67
r 0.844 1 2 cbr 500 ------- 0 1.0 3.0 66 70
+ 0.844 2 3 cbr 500 ------- 0 1.0 3.0 66 70
+ 0.845 1 2 cbr 500 ------- 0 1.0 3.0 69 74
- 0.845 1 2 cbr 500 ------- 0 1.0 3.0 69 74
- 0.84564 2 3 cbr 500 ------- 0 1.0 3.0 64 68
r 0.84764 2 3 tcp 1040 ------- 0 0.0 3.1 2 62
+ 0.84764 3 2 ack 40 ------- 0 3.1 0.0 2 75
- 0.84764 3 2 ack 40 ------- 0 3.1 0.0 2 75
r 0.849 1 2 cbr 500 ------- 0 1.0 3.0 67 72
+ 0.849 2 3 cbr 500 ------- 0 1.0 3.0 67 72
- 0.84964 2 3 cbr 500 ------- 0 1.0 3.0 65 69
+ 0.85 1 2 cbr 500 ------- 0 1.0 3.0 70 76
- 0.85 1 2 cbr 500 ------- 0 1.0 3.0 70 76
r 0.85164 2 3 cbr 500 ------- 0 1.0 3.0 62 66
r 0.85196 2 0 ack 40 ------- 0 3.1 0.0 1 71
+ 0.85196 0 2 tcp 1040 ------- 0 0.0 3.1 3 77
- 0.85196 0 2 tcp 1040 ------- 0 0.0 3.1 3 77
+ 0.85196 0 2 tcp 1040 ------- 0 0.0 3.1 4 78
- 0.85364 2 3 cbr 500 ------- 0 1.0 3.0 66 70
r 0.854 1 2 cbr 500 ------- 0 1.0 3.0 68 73
+ 0.854 2 3 cbr 500 ------- 0 1.0 3.0 68 73
+ 0.855 1 2 cbr 500 ------- 0 1.0 3.0 71 79
- 0.855 1 2 cbr 500 ------- 0 1.0 3.0 71 79
r 0.85564 2 3 cbr 500 ------- 0 1.0 3.0 63 67
- 0.85764 2 3 cbr 500 ------- 0 1.0 3.0 67 72
r 0.85796 3 2 ack 40 ------- 0 3.1 0.0 2 75
+ 0.85796 2 0 ack 40 ------- 0 3.1 0.0 2 75
- 0.85796 2 0 ack 40 ------- 0 3.1 0.0 2 75
r 0.859 1 2 cbr 500 ------- 0 1.0 3.0 69 74
+ 0.859 2 3 cbr 500 ------- 0 1.0 3.0 69 74
r 0.85964 2 3 cbr 500 ------- 0 1.0 3.0 64 68
+ 0.86 1 2 cbr 500 ------- 0 1.0 3.0 72 80
- 0.86 1 2 cbr 500 ------- 0 1.0 3.0 72 80
- 0.86028 0 2 tcp 1040 ------- 0 0.0 3.1 4 78
- 0.86164 2 3 cbr 500 ------- 0 1.0 3.0 68 73
r 0.86364 2 3 cbr 500 ------- 0 1.0 3.0 65 69
r 0.864 1 2 cbr 500 ------- 0 1.0 3.0 70 76
+ 0.864 2 3 cbr 500 ------- 0 1.0 3.0 70 76
+ 0.865 1 2 cbr 500 ------- 0 1.0 3.0 73 81
- 0.865 1 2 cbr 500 ------- 0 1.0 3.0 73 81
- 0.86564 2 3 cbr 500 ------- 0 1.0 3.0 69 74
r 0.86764 2 3 cbr 500 ------- 0 1.0 3.0 66 70
r 0.86828 2 0 ack 40 ------- 0 3.1 0.0 2 75
+ 0.86828 0 2 tcp 1040 ------- 0 0.0 3.1 5 82
+ 0.86828 0 2 tcp 1040 ------- 0 0.0 3.1 6 83
- 0.8686 0 2 tcp 1040 ------- 0 0.0 3.1 5 82
r 0.869 1 2 cbr 500 ------- 0 1.0 3.0 71 79
+ 0.869 2 3 cbr 500 ------- 0 1.0 3.0 71 79
- 0.86964 2 3 cbr 500 ------- 0 1.0 3.0 70 76
+ 0.87 1 2 cbr 500 ------- 0 1.0 3.0 74 84
- 0.87 1 2 cbr 500 ------- 0 1.0 3.0 74 84
r 0.87028 0 2 tcp 1040 ------- 0 0.0 3.1 3 77
+ 0.87028 2 3 tcp 1040 ------- 0 0.0 3.1 3 77
r 0.87164 2 3 cbr 500 ------- 0 1.0 3.0 67 72
- 0.87364 2 3 cbr 500 ------- 0 1.0 3.0 71 79
r 0.874 1 2 cbr 500 ------- 0 1.0 3.0 72 80
+ 0.874 2 3 cbr 500 ------- 0 1.0 3.0 72 80
+ 0.875 1 2 cbr 500 ------- 0 1.0 3.0 75 85
- 0.875 1 2 cbr 500 ------- 0 1.0 3.0 75 85
r 0.87564 2 3 cbr 500 ------- 0 1.0 3.0 68 73
- 0.87692 0 2 tcp 1040 ------- 0 0.0 3.1 6 83
- 0.87764 2 3 tcp 1040 ------- 0 0.0 3.1 3 77
r 0.8786 0 2 tcp 1040 ------- 0 0.0 3.1 4 78
+ 0.8786 2 3 tcp 1040 ------- 0 0.0 3.1 4 78
r 0.879 1 2 cbr 500 ------- 0 1.0 3.0 73 81
+ 0.879 2 3 cbr 500 ------- 0 1.0 3.0 73 81
r 0.87964 2 3 cbr 500 ------- 0 1.0 3.0 69 74
+ 0.88 1 2 cbr 500 ------- 0 1.0 3.0 76 86
- 0.88 1 2 cbr 500 ------- 0 1.0 3.0 76 86
r 0.88364 2 3 cbr 500 ------- 0 1.0 3.0 70 76
r 0.884 1 2 cbr 500 ------- 0 1.0 3.0 74 84
+ 0.884 2 3 cbr 500 ------- 0 1.0 3.0 74 84
+ 0.885 1 2 cbr 500 ------- 0 1.0 3.0 77 87
- 0.885 1 2 cbr 500 ------- 0 1.0 3.0 77 87
- 0.88596 2 3 cbr 500 ------- 0 1.0 3.0 72 80
r 0.88692 0 2 tcp 1040 ------- 0 0.0 3.1 5 82
+ 0.88692 2 3 tcp 1040 ------- 0 0.0 3.1 5 82
r 0.88764 2 3 cbr 500 ------- 0 1.0 3.0 71 79
r 0.889 1 2 cbr 500 ------- 0 1.0 3.0 75 85
+ 0.889 2 3 cbr 500 ------- 0 1.0 3.0 75 85
- 0.88996 2 3 tcp 1040 ------- 0 0.0 3.1 4 78
+ 0.89 1 2 cbr 500 ------- 0 1.0 3.0 78 88
- 0.89 1 2 cbr 500 ------- 0 1.0 3.0 78 88
r 0.894 1 2 cbr 500 ------- 0 1.0 3.0 76 86
+ 0.894 2 3 cbr 500 ------- 0 1.0 3.0 76 86
+ 0.895 1 2 cbr 500 ------- 0 1.0 3.0 79 89
- 0.895 1 2 cbr 500 ------- 0 1.0 3.0 79 89
r 0.89524 0 2 tcp 1040 ------- 0 0.0 3.1 6 83
+ 0.89524 2 3 tcp 1040 ------- 0 0.0 3.1 6 83
r 0.89596 2 3 tcp 1040 ------- 0 0.0 3.1 3 77
+ 0.89596 3 2 ack 40 ------- 0 3.1 0.0 3 90
- 0.89596 3 2 ack 40 ------- 0 3.1 0.0 3 90
- 0.89828 2 3 cbr 500 ------- 0 1.0 3.0 73 81
r 0.899 1 2 cbr 500 ------- 0 1.0 3.0 77 87
+ 0.899 2 3 cbr 500 ------- 0 1.0 3.0 77 87
r 0.89996 2 3 cbr 500 ------- 0 1.0 3.0 72 80
+ 0.9 1 2 cbr 500 ------- 0 1.0 3.0 80 91
- 0.9 1 2 cbr 500 ------- 0 1.0 3.0 80 91
- 0.90228 2 3 cbr 500 ------- 0 1.0 3.0 74 84
r 0.904 1 2 cbr 500 ------- 0 1.0 3.0 78 88
+ 0.904 2 3 cbr 500 ------- 0 1.0 3.0 78 88
+ 0.905 1 2 cbr 500 ------- 0 1.0 3.0 81 92
- 0.905 1 2 cbr 500 ------- 0 1.0 3.0 81 92
r 0.90628 3 2 ack 40 ------- 0 3.1 0.0 3 90
+ 0.90628 2 0 ack 40 ------- 0 3.1 0.0 3 90
- 0.90628 2 0 ack 40 ------- 0 3.1 0.0 3 90
- 0.90628 2 3 tcp 1040 ------- 0 0.0 3.1 5 82
r 0.90828 2 3 tcp 1040 ------- 0 0.0 3.1 4 78
+ 0.90828 3 2 ack 40 ------- 0 3.1 0.0 4 93
- 0.90828 3 2 ack 40 ------- 0 3.1 0.0 4 93
r 0.909 1 2 cbr 500 ------- 0 1.0 3.0 79 89
+ 0.909 2 3 cbr 500 ------- 0 1.0 3.0 79 89
+ 0.91 1 2 cbr 500 ------- 0 1.0 3.0 82 94
- 0.91 1 2 cbr 500 ------- 0 1.0 3.0 82 94
r 0.91228 2 3 cbr 500 ------- 0 1.0 3.0 73 81
r 0.914 1 2 cbr 500 ------- 0 1.0 3.0 80 91
+ 0.914 2 3 cbr 500 ------- 0 1.0 3.0 80 91
- 0.9146 2 3 cbr 500 ------- 0 1.0 3.0 75 85
+ 0.915 1 2 cbr 500 ------- 0 1.0 3.0 83 95
- 0.915 1 2 cbr 500 ------- 0 1.0 3.0 83 95
r 0.91628 2 3 cbr 500 ------- 0 1.0 3.0 74 84
r 0.9166 2 0 ack 40 ------- 0 3.1 0.0 3 90
+ 0.9166 0 2 tcp 1040 ------- 0 0.0 3.1 7 96
- 0.9166 0 2 tcp 1040 ------- 0 0.0 3.1 7 96
+ 0.9166 0 2 tcp 1040 ------- 0 0.0 3.1 8 97
r 0.9186 3 2 ack 40 ------- 0 3.1 0.0 4 93
+ 0.9186 2 0 ack 40 ------- 0 3.1 0.0 4 93
- 0.9186 2 0 ack 40 ------- 0 3.1 0.0 4 93
- 0.9186 2 3 cbr 500 ------- 0 1.0 3.0 76 86
r 0.919 1 2 cbr 500 ------- 0 1.0 3.0 81 92
+ 0.919 2 3 cbr 500 ------- 0 1.0 3.0 81 92
+ 0.92 1 2 cbr 500 ------- 0 1.0 3.0 84 98
- 0.92 1 2 cbr 500 ------- 0 1.0 3.0 84 98
- 0.9226 2 3 tcp 1040 ------- 0 0.0 3.1 6 83
r 0.924 1 2 cbr 500 ------- 0 1.0 3.0 82 94
+ 0.924 2 3 cbr 500 ------- 0 1.0 3.0 82 94
r 0.9246 2 3 tcp 1040 ------- 0 0.0 3.1 5 82
+ 0.9246 3 2 ack 40 ------- 0 3.1 0.0 5 99
- 0.9246 3 2 ack 40 ------- 0 3.1 0.0 5 99
- 0.92492 0 2 tcp 1040 ------- 0 0.0 3.1 8 97
+ 0.925 1 2 cbr 500 ------- 0 1.0 3.0 85 100
- 0.925 1 2 cbr 500 ------- 0 1.0 3.0 85 100
r 0.9286 2 3 cbr 500 ------- 0 1.0 3.0 75 85
r 0.92892 2 0 ack 40 ------- 0 3.1 0.0 4 93
+ 0.92892 0 2 tcp 1040 ------- 0 0.0 3.1 9 101
+ 0.92892 0 2 tcp 1040 ------- 0 0.0 3.1 10 102
r 0.929 1 2 cbr 500 ------- 0 1.0 3.0 83 95
+ 0.929 2 3 cbr 500 ------- 0 1.0 3.0 83 95
+ 0.93 1 2 cbr 500 ------- 0 1.0 3.0 86 103
- 0.93 1 2 cbr 500 ------- 0 1.0 3.0 86 103
- 0.93092 2 3 cbr 500 ------- 0 1.0 3.0 77 87
r 0.9326 2 3 cbr 500 ------- 0 1.0 3.0 76 86
- 0.93324 0 2 tcp 1040 ------- 0 0.0 3.1 9 101
r 0.934 1 2 cbr 500 ------- 0 1.0 3.0 84 98
+ 0.934 2 3 cbr 500 ------- 0 1.0 3.0 84 98
r 0.93492 0 2 tcp 1040 ------- 0 0.0 3.1 7 96
+ 0.93492 2 3 tcp 1040 ------- 0 0.0 3.1 7 96
r 0.93492 3 2 ack 40 ------- 0 3.1 0.0 5 99
+ 0.93492 2 0 ack 40 ------- 0 3.1 0.0 5 99
- 0.93492 2 0 ack 40 ------- 0 3.1 0.0 5 99
- 0.93492 2 3 cbr 500 ------- 0 1.0 3.0 78 88
+ 0.935 1 2 cbr 500 ------- 0 1.0 3.0 87 104
- 0.935 1 2 cbr 500 ------- 0 1.0 3.0 87 104
- 0.93892 2 3 cbr 500 ------- 0 1.0 3.0 79 89
r 0.939 1 2 cbr 500 ------- 0 1.0 3.0 85 100
+ 0.939 2 3 cbr 500 ------- 0 1.0 3.0 85 100
+ 0.94 1 2 cbr 500 ------- 0 1.0 3.0 88 105
- 0.94 1 2 cbr 500 ------- 0 1.0 3.0 88 105
r 0.94092 2 3 tcp 1040 ------- 0 0.0 3.1 6 83
+ 0.94092 3 2 ack 40 ------- 0 3.1 0.0 6 106
- 0.94092 3 2 ack 40 ------- 0 3.1 0.0 6 106
- 0.94156 0 2 tcp 1040 ------- 0 0.0 3.1 10 102
- 0.94292 2 3 cbr 500 ------- 0 1.0 3.0 80 91
r 0.94324 0 2 tcp 1040 ------- 0 0.0 3.1 8 97
+ 0.94324 2 3 tcp 1040 ------- 0 0.0 3.1 8 97
r 0.944 1 2 cbr 500 ------- 0 1.0 3.0 86 103
+ 0.944 2 3 cbr 500 ------- 0 1.0 3.0 86 103
r 0.94492 2 3 cbr 500 ------- 0 1.0 3.0 77 87
+ 0.945 1 2 cbr 500 ------- 0 1.0 3.0 89 107
- 0.945 1 2 cbr 500 ------- 0 1.0 3.0 89 107
r 0.94524 2 0 ack 40 ------- 0 3.1 0.0 5 99
+ 0.94524 0 2 tcp 1040 ------- 0 0.0 3.1 11 108
+ 0.94524 0 2 tcp 1040 ------- 0 0.0 3.1 12 109
- 0.94692 2 3 cbr 500 ------- 0 1.0 3.0 81 92
r 0.94892 2 3 cbr 500 ------- 0 1.0 3.0 78 88
r 0.949 1 2 cbr 500 ------- 0 1.0 3.0 87 104
+ 0.949 2 3 cbr 500 ------- 0 1.0 3.0 87 104
- 0.94988 0 2 tcp 1040 ------- 0 0.0 3.1 11 108
+ 0.95 1 2 cbr 500 ------- 0 1.0 3.0 90 110
- 0.95 1 2 cbr 500 ------- 0 1.0 3.0 90 110
- 0.95092 2 3 cbr 500 ------- 0 1.0 3.0 82 94
r 0.95124 3 2 ack 40 ------- 0 3.1 0.0 6 106
+ 0.95124 2 0 ack 40 ------- 0 3.1 0.0 6 106
- 0.95124 2 0 ack 40 ------- 0 3.1 0.0 6 106
r 0.95156 0 2 tcp 1040 ------- 0 0.0 3.1 9 101
+ 0.95156 2 3 tcp 1040 ------- 0 0.0 3.1 9 101
r 0.95292 2 3 cbr 500 ------- 0 1.0 3.0 79 89
r 0.954 1 2 cbr 500 ------- 0 1.0 3.0 88 105
+ 0.954 2 3 cbr 500 ------- 0 1.0 3.0 88 105
- 0.95492 2 3 cbr 500 ------- 0 1.0 3.0 83 95
+ 0.955 1 2 cbr 500 ------- 0 1.0 3.0 91 111
- 0.955 1 2 cbr 500 ------- 0 1.0 3.0 91 111
r 0.95692 2 3 cbr 500 ------- 0 1.0 3.0 80 91
- 0.9582 0 2 tcp 1040 ------- 0 0.0 3.1 12 109
- 0.95892 2 3 cbr 500 ------- 0 1.0 3.0 84 98
r 0.959 1 2 cbr 500 ------- 0 1.0 3.0 89 107
+ 0.959 2 3 cbr 500 ------- 0 1.0 3.0 89 107
r 0.95988 0 2 tcp 1040 ------- 0 0.0 3.1 10 102
+ 0.95988 2 3 tcp 1040 ------- 0 0.0 3.1 10 102
+ 0.96 1 2 cbr 500 ------- 0 1.0 3.0 92 112
- 0.96 1 2 cbr 500 ------- 0 1.0 3.0 92 112
r 0.96092 2 3 cbr 500 ------- 0 1.0 3.0 81 92
r 0.96156 2 0 ack 40 ------- 0 3.1 0.0 6 106
+ 0.96156 0 2 tcp 1040 ------- 0 0.0 3.1 13 113
+ 0.96156 0 2 tcp 1040 ------- 0 0.0 3.1 14 114
- 0.96292 2 3 tcp 1040 ------- 0 0.0 3.1 7 96
r 0.964 1 2 cbr 500 ------- 0 1.0 3.0 90 110
+ 0.964 2 3 cbr 500 ------- 0 1.0 3.0 90 110
r 0.96492 2 3 cbr 500 ------- 0 1.0 3.0 82 94
+ 0.965 1 2 cbr 500 ------- 0 1.0 3.0 93 115
- 0.965 1 2 cbr 500 ------- 0 1.0 3.0 93 115
- 0.96652 0 2 tcp 1040 ------- 0 0.0 3.1 13 113
r 0.9682 0 2 tcp 1040 ------- 0 0.0 3.1 11 108
+ 0.9682 2 3 tcp 1040 ------- 0 0.0 3.1 11 108
r 0.96892 2 3 cbr 500 ------- 0 1.0 3.0 83 95
r 0.969 1 2 cbr 500 ------- 0 1.0 3.0 91 111
+ 0.969 2 3 cbr 500 ------- 0 1.0 3.0 91 111
+ 0.97 1 2 cbr 500 ------- 0 1.0 3.0 94 116
- 0.97 1 2 cbr 500 ------- 0 1.0 3.0 94 116
- 0.97124 2 3 cbr 500 ------- 0 1.0 3.0 85 100
r 0.97292 2 3 cbr 500 ------- 0 1.0 3.0 84 98
r 0.974 1 2 cbr 500 ------- 0 1.0 3.0 92 112
+ 0.974 2 3 cbr 500 ------- 0 1.0 3.0 92 112
- 0.97484 0 2 tcp 1040 ------- 0 0.0 3.1 14 114
+ 0.975 1 2 cbr 500 ------- 0 1.0 3.0 95 117
- 0.975 1 2 cbr 500 ------- 0 1.0 3.0 95 117
- 0.97524 2 3 tcp 1040 ------- 0 0.0 3.1 8 97
r 0.97652 0 2 tcp 1040 ------- 0 0.0 3.1 12 109
+ 0.97652 2 3 tcp 1040 ------- 0 0.0 3.1 12 109
r 0.979 1 2 cbr 500 ------- 0 1.0 3.0 93 115
+ 0.979 2 3 cbr 500 ------- 0 1.0 3.0 93 115
+ 0.98 1 2 cbr 500 ------- 0 1.0 3.0 96 118
- 0.98 1 2 cbr 500 ------- 0 1.0 3.0 96 118
r 0.98124 2 3 tcp 1040 ------- 0 0.0 3.1 7 96
+ 0.98124 3 2 ack 40 ------- 0 3.1 0.0 7 119
- 0.98124 3 2 ack 40 ------- 0 3.1 0.0 7 119
- 0.98356 2 3 cbr 500 ------- 0 1.0 3.0 86 103
r 0.984 1 2 cbr 500 ------- 0 1.0 3.0 94 116
+ 0.984 2 3 cbr 500 ------- 0 1.0 3.0 94 116
r 0.98484 0 2 tcp 1040 ------- 0 0.0 3.1 13 113
+ 0.98484 2 3 tcp 1040 ------- 0 0.0 3.1 13 113
+ 0.985 1 2 cbr 500 ------- 0 1.0 3.0 97 120
- 0.985 1 2 cbr 500 ------- 0 1.0 3.0 97 120
r 0.98524 2 3 cbr 500 ------- 0 1.0 3.0 85 100
- 0.98756 2 3 cbr 500 ------- 0 1.0 3.0 87 104