V -t * -v 1.0a5 -a 0
A -t * -n 1 -p 0 -o 0x7fffffff -c 30 -a 1
A -t * -h 1 -m 1073741823 -s 0
n -t * -a 0 -s 0 -S UP -v circle -c black -i black
n -t * -a 1 -s 1 -S UP -v circle -c black -i black
n -t * -a 2 -s 2 -S UP -v circle -c black -i black
n -t * -a 3 -s 3 -S UP -v circle -c black -i black
l -t * -s 0 -d 2 -S UP -r 1000000 -D 0.01 -c black
l -t * -s 1 -d 2 -S UP -r 1000000 -D 0.01 -c black
l -t * -s 3 -d 2 -S UP -r 1000000 -D 0.01 -c black
+ -t 0.5 -s 1 -d 2 -p cbr -e 500 -c 0 -i 0 -a 0 -x {1.0 3.0 0 ------- null}
- -t 0.5 -s 1 -d 2 -p cbr -e 500 -c 0 -i 0 -a 0 -x {1.0 3.0 0 ------- null}
h -t 0.5 -s 1 -d 2 -p cbr -e 500 -c 0 -i 0 -a 0 -x {1.0 3.0 -1 ------- null}
+ -t 0.505 -s 1 -d 2 -p cbr -e 500 -c 0 -i 1 -a 0 -x {1.0 3.0 1 ------- null}
- -t 0.505 -s 1 -d 2 -p cbr -e 500 -c 0 -i 1 -a 0 -x {1.0 3.0 1 ------- null}
h -t 0.505 -s 1 -d 2 -p cbr -e 500 -c 0 -i 1 -a 0 -x {1.0 3.0 -1 ------- null}
+ -t 0.51 -s 1 -d 2 -p cbr -e 500 -c 0 -i 2 -a 0 -x {1.0 3.0 2 ------- null}
- -t 0.51 -s 1 -d 2 -p cbr -e 500 -c 0 -i 2 -a 0 -x {1.0 3.0 2 ------- null}
h -t 0.51 -s 1 -d 2 -p cbr -e 500 -c 0 -i 2 -a 0 -x {1.0 3.0 -1 ------- null}
r -t 0.514 -s 1 -d 2 -p cbr -e 500 -c 0 -i 0 -a 0 -x {1.0 3.0 0 ------- null}
+ -t 0.514 -s 2 -d 3 -p cbr -e 500 -c 0 -i 0 -a 0 -x {1.0 3.0 0 ------- null}
- -t 0.514 -s 2 -d 3 -p cbr -e 500 -c 0 -i 0 -a 0 -x {1.0 3.0 0 ------- null}
h -t 0.514 -s 2 -d 3 -p cbr -e 500 -c 0 -i 0 -a 0 -x {1.0 3.0 -1 ------- null}
+ -t 0.515 -s 1 -d 2 -p cbr -e 500 -c 0 -i 3 -a 0 -x {1.0 3.0 3 ------- null}
- -t 0.515 -s 1 -d 2 -p cbr -e 500 -c 0 -i 3 -a 0 -x {1.0 3.0 3 ------- null}
h -t 0.515 -s 1 -d 2 -p cbr -e 500 -c 0 -i 3 -a 0 -x {1.0 3.0 -1 ------- null}
r -t 0.519 -s 1 -d 2 -p cbr -e 500 -c 0 -i 1 -a 0 -x {1.0 3.0 1 ------- null}
+ -t 0.519 -s 2 -d 3 -p cbr -e 500 -c 0 -i 1 -a 0 -x {1.0 3.0 1 ------- null}
- -t 0.519 -s 2 -d 3 -p cbr -e 500 -c 0 -i 1 -a 0 -x {1.0 3.0 1 ------- null}
h -t 0.519 -s 2 -d 3 -p cbr -e 500 -c 0 -i 1 -a 0 -x {1.0 3.0 -1 ------- null}
+ -t 0.52 -s 1 -d 2 -p cbr -e 500 -c 0 -i 4 -a 0 -x {1.0 3.0 4 ------- null}
- -t 0.52 -s 1 -d 2 -p cbr -e 500 -c 0 -i 4 -a 0 -x {1.0 3.0 4 ------- null}
h -t 0.52 -s 1 -d 2 -p cbr -e 500 -c 0 -i 4 -a 0 -x {1.0 3.0 -1 ------- null}
r -t 0.524 -s 1 -d 2 -p cbr -e 500 -c 0 -i 2 -a 0 -x {1.0 3.0 2 ------- null}
+ -t 0.524 -s 2 -d 3 -p cbr -e 500 -c 0 -i 2 -a 0 -x {1.0 3.0 2 ------- null}
- -t 0.524 -s 2 -d 3 -p cbr -e 500 -c 0 -i 2 -a 0 -x {1.0 3.0 2 ------- null}
h -t 0.524 -s 2 -d 3 -p cbr -e 500 -c 0 -i 2 -a 0 -x {1.0 3.0 -1 ------- null}
+ -t 0.525 -s 1 -d 2 -p cbr -e 500 -c 0 -i 5 -a 0 -x {1.0 3.0 5 ------- null}
- -t 0.525 -s 1 -d 2 -p cbr -e 500 -c 0 -i 5 -a 0 -x {1.0 3.0 5 ------- null}
h -t 0.525 -s 1 -d 2 -p cbr -e 500 -c 0 -i 5 -a 0 -x {1.0 3.0 -1 ------- null}
r -t 0.528 -s 2 -d 3 -p cbr -e 500 -c 0 -i 0 -a 0 -x {1.0 3.0 0 ------- null}
r -t 0.529 -s 1 -d 2 -p cbr -e 500 -c 0 -i 3 -a 0 -x {1.0 3.0 3 ------- null}
+ -t 0.529 -s 2 -d 3 -p cbr -e 500 -c 0 -i 3 -a 0 -x {1.0 3.0 3 ------- null}
- -t 0.529 -s 2 -d 3 -p cbr -e 500 -c 0 -i 3 -a 0 -x {1.0 3.0 3 ------- null}
h -t 0.529 -s 2 -d 3 -p cbr -e 500 -c 0 -i 3 -a 0 -x {1.0 3.0 -1 ------- null}
+ -t 0.53 -s 1 -d 2 -p cbr -e 500 -c 0 -i 6 -a 0 -x {1.0 3.0 6 ------- null}
- -t 0.53 -s 1 -d 2 -p cbr -e 500 -c 0 -i 6 -a 0 -x {1.0 3.0 6 ------- null}
h -t 0.53 -s 1 -d 2 -p cbr -e 500 -c 0 -i 6 -a 0 -x {1.0 3.0 -1 ------- null}
r -t 0.533 -s 2 -d 3 -p cbr -e 500 -c 0 -i 1 -a 0 -x {1.0 3.0 1 ------- null}
r -t 0.534 -s 1 -d 2 -p cbr -e 500 -c 0 -i 4 -a 0 -x {1.0 3.0 4 ------- null}
+ -t 0.534 -s 2 -d 3 -p cbr -e 500 -c 0 -i 4 -a 0 -x {1.0 3.0 4 ------- null}
- -t 0.534 -s 2 -d 3 -p cbr -e 500 -c 0 -i 4 -a 0 -x {1.0 3.0 4 ------- null}
h -t 0.534 -s 2 -d 3 -p cbr -e 500 -c 0 -i 4 -a 0 -x {1.0 3.0 -1 ------- null}
+ -t 0.535 -s 1 -d 2 -p cbr -e 500 -c 0 -i 7 -a 0 -x {1.0 3.0 7 ------- null}
- -t 0.535 -s 1 -d 2 -p cbr -e 500 -c 0 -i 7 -a 0 -x {1.0 3.0 7 ------- null}
h -t 0.535 -s 1 -d 2 -p cbr -e 500 -c 0 -i 7 -a 0 -x {1.0 3.0 -1 ------- null}
r -t 0.538 -s 2 -d 3 -p cbr -e 500 -c 0 -i 2 -a 0 -x {1.0 3.0 2 ------- null}
r -t 0.539 -s 1 -d 2 -p cbr -e 500 -c 0 -i 5 -a 0 -x {1.0 3.0 5 ------- null}
+ -t 0.539 -s 2 -d 3 -p cbr -e 500 -c 0 -i 5 -a 0 -x {1.0 3.0 5 ------- null}
- -t 0.539 -s 2 -d 3 -p cbr -e 500 -c 0 -i 5 -a 0 -x {1.0 3.0 5 ------- null}
h -t 0.539 -s 2 -d 3 -p cbr -e 500 -c 0 -i 5 -a 0 -x {1.0 3.0 -1 ------- null}
+ -t 0.54 -s 1 -d 2 -p cbr -e 500 -c 0 -i 8 -a 0 -x {1.0 3.0 8 ------- null}
- -t 0.54 -s 1 -d 2 -p cbr -e 500 -c 0 -i 8 -a 0 -x {1.0 3.0 8 ------- null}
h -t 0.54 -s 1 -d 2 -p cbr -e 500 -c 0 -i 8 -a 0 -x {1.0 3.0 -1 ------- null}
r -t 0.543 -s 2 -d 3 -p cbr -e 500 -c 0 -i 3 -a 0 -x {1.0 3.0 3 ------- null}
r -t 0.544 -s 1 -d 2 -p cbr -e 500 -c 0 -i 6 -a 0 -x {1.0 3.0 6 ------- null}
+ -t 0.544 -s 2 -d 3 -p cbr -e 500 -c 0 -i 6 -a 0 -x {1.0 3.0 6 ------- null}
- -t 0.544 -s 2 -d 3 -p cbr -e 500 -c 0 -i 6 -a 0 -x {1.0 3.0 6 ------- null}
h -t 0.544 -s 2 -d 3 -p cbr -e 500 -c 0 -i 6 -a 0 -x {1.0 3.0 -1 ------- null}
+ -t 0.545 -s 1 -d 2 -p cbr -e 500 -c 0 -i 9 -a 0 -x {1.0 3.0 9 ------- null}
- -t 0.545 -s 1 -d 2 -p cbr -e 500 -c 0 -i 9 -a 0 -x {1.0 3.0 9 ------- null}
h -t 0.545 -s 1 -d 2 -p cbr -e 500 -c 0 -i 9 -a 0 -x {1.0 3.0 -1 ------- null}
r -t 0.548 -s 2 -d 3 -p cbr -e 500 -c 0 -i 4 -a 0 -x {1.0 3.0 4 ------- null}
r -t 0.549 -s 1 -d 2 -p cbr -e 500 -c 0 -i 7 -a 0 -x {1.0 3.0 7 ------- null}
+ -t 0.549 -s 2 -d 3 -p cbr -e 500 -c 0 -i 7 -a 0 -x {1.0 3.0 7 ------- null}
- -t 0.549 -s 2 -d 3 -p cbr -e 500 -c 0 -i 7 -a 0 -x {1.0 3.0 7 ------- null}
h -t 0.549 -s 2 -d 3 -p cbr -e 500 -c 0 -i 7 -a 0 -x {1.0 3.0 -1 ------- null}
+ -t 0.55 -s 1 -d 2 -p cbr -e 500 -c 0 -i 10 -a 0 -x {1.0 3.0 10 ------- null}
- -t 0.55 -s 1 -d 2 -p cbr -e 500 -c 0 -i 10 -a 0 -x {1.0 3.0 10 ------- null}
h -t 0.55 -s 1 -d 2 -p cbr -e 500 -c 0 -i 10 -a 0 -x {1.0 3.0 -1 ------- null}
r -t 0.553 -s 2 -d 3 -p cbr -e 500 -c 0 -i 5 -a 0 -x {1.0 3.0 5 ------- null}
r -t 0.554 -s 1 -d 2 -p cbr -e 500 -c 0 -i 8 -a 0 -x {1.0 3.0 8 ------- null}
+ -t 0.554 -s 2 -d 3 -p cbr -e 500 -c 0 -i 8 -a 0 -x {1.0 3.0 8 ------- null}
- -t 0.554 -s 2 -d 3 -p cbr -e 500 -c 0 -i 8 -a 0 -x {1.0 3.0 8 ------- null}
h -t 0.554 -s 2 -d 3 -p cbr -e 500 -c 0 -i 8 -a 0 -x {1.0 3.0 -1 ------- null}
+ -t 0.555 -s 1 -d 2 -p cbr -e 500 -c 0 -i 11 -a 0 -x {1.0 3.0 11 ------- null}
- -t 0.555 -s 1 -d 2 -p cbr -e 500 -c 0 -i 11 -a 0 -x {1.0 3.0 11 ------- null}
h -t 0.555 -s 1 -d 2 -p cbr -e 500 -c 0 -i 11 -a 0 -x {1.0 3.0 -1 ------- null}
r -t 0.558 -s 2 -d 3 -p cbr -e 500 -c 0 -i 6 -a 0 -x {1.0 3.0 6 ------- null}
r -t 0.559 -s 1 -d 2 -p cbr -e 500 -c 0 -i 9 -a 0 -x {1.0 3.0 9 ------- null}
+ -t 0.559 -s 2 -d 3 -p cbr -e 500 -c 0 -i 9 -a 0 -x {1.0 3.0 9 ------- null}
- -t 0.559 -s 2 -d 3 -p cbr -e 500 -c 0 -i 9 -a 0 -x {1.0 3.0 9 ------- null}
h -t 0.559 -s 2 -d 3 -p cbr -e 500 -c 0 -i 9 -a 0 -x {1.0 3.0 -1 ------- null}
+ -t 0.56 -s 1 -d 2 -p cbr -e 500 -c 0 -i 12 -a 0 -x {1.0 3.0 12 ------- null}
- -t 0.56 -s 1 -d 2 -p cbr -e 500 -c 0 -i 12 -a 0 -x {1.0 3.0 12 ------- null}
h -t 0.56 -s 1 -d 2 -p cbr -e 500 -c 0 -i 12 -a 0 -x {1.0 3.0 -1 ------- null}
r -t 0.563 -s 2 -d 3 -p cbr -e 500 -c 0 -i 7 -a 0 -x {1.0 3.0 7 ------- null}
r -t 0.564 -s 1 -d 2 -p cbr -e 500 -c 0 -i 10 -a 0 -x {1.0 3.0 10 ------- null}
+ -t 0.564 -s 2 -d 3 -p cbr -e 500 -c 0 -i 10 -a 0 -x {1.0 3.0 10 ------- null}
- -t 0.564 -s 2 -d 3 -p cbr -e 500 -c 0 -i 10 -a 0 -x {1.0 3.0 10 ------- null}
h -t 0.564 -s 2 -d 3 -p cbr -e 500 -c 0 -i 10 -a 0 -x {1.0 3.0 -1 ------- null}
+ -t 0.565 -s 1 -d 2 -p cbr -e 500 -c 0 -i 13 -a 0 -x {1.0 3.0 13 ------- null}
- -t 0.565 -s 1 -d 2 -p cbr -e 500 -c 0 -i 13 -a 0 -x {1.0 3.0 13 ------- null}
h -t 0.565 -s 1 -d 2 -p cbr -e 500 -c 0 -i 13 -a 0 -x {1.0 3.0 -1 ------- null}
r -t 0.568 -s 2 -d 3 -p cbr -e 500 -c 0 -i 8 -a 0 -x {1.0 3.0 8 ------- null}
r -t 0.569 -s 1 -d 2 -p cbr -e 500 -c 0 -i 11 -a 0 -x {1.0 3.0 11 ------- null}
+ -t 0.569 -s 2 -d 3 -p cbr -e 500 -c 0 -i 11 -a 0 -x {1.0 3.0 11 ------- null}
- -t 0.569 -s 2 -d 3 -p cbr -e 500 -c 0 -i 11 -a 0 -x {1.0 3.0 11 ------- null}
h -t 0.569 -s 2 -d 3 -p cbr -e 500 -c 0 -i 11 -a 0 -x {1.0 3.0 -1 ------- null}
+ -t 0.57 -s 1 -d 2 -p cbr -e 500 -c 0 -i 14 -a 0 -x {1.0 3.0 14 ------- null}
- -t 0.57 -s 1 -d 2 -p cbr -e 500 -c 0 -i 14 -a 0 -x {1.0 3.0 14 ------- null}
h -t 0.57 -s 1 -d 2 -p cbr -e 500 -c 0 -i 14 -a 0 -x {1.0 3.0 -1 ------- null}
r -t 0.573 -s 2 -d 3 -p cbr -e 500 -c 0 -i 9 -a 0 -x {1.0 3.0 9 ------- null}
r -t 0.574 -s 1 -d 2 -p cbr -e 500 -c 0 -i 12 -a 0 -x {1.0 3.0 12 ------- null}
+ -t 0.574 -s 2 -d 3 -p cbr -e 500 -c 0 -i 12 -a 0 -x {1.0 3.0 12 ------- null}
- -t 0.574 -s 2 -d 3 -p cbr -e 500 -c 0 -i 12 -a 0 -x {1.0 3.0 12 ------- null}
h -t 0.574 -s 2 -d 3 -p cbr -e 500 -c 0 -i 12 -a 0 -x {1.0 3.0 -1 ------- null}
+ -t 0.575 -s 1 -d 2 -p cbr -e 500 -c 0 -i 15 -a 0 -x {1.0 3.0 15 ------- null}
- -t 0.575 -s 1 -d 2 -p cbr -e 500 -c 0 -i 15 -a 0 -x {1.0 3.0 15 ------- null}
h -t 0.575 -s 1 -d 2 -p cbr -e 500 -c 0 -i 15 -a 0 -x {1.0 3.0 -1 ------- null}
r -t 0.578 -s 2 -d 3 -p cbr -e 500 -c 0 -i 10 -a 0 -x {1.0 3.0 10 ------- null}
r -t 0.579 -s 1 -d 2 -p cbr -e 500 -c 0 -i 13 -a 0 -x {1.0 3.0 13 ------- null}
+ -t 0.579 -s 2 -d 3 -p cbr -e 500 -c 0 -i 13 -a 0 -x {1.0 3.0 13 ------- null}
- -t 0.579 -s 2 -d 3 -p cbr -e 500 -c 0 -i 13 -a 0 -x {1.0 3.0 13 ------- null}
h -t 0.579 -s 2 -d 3 -p cbr -e 500 -c 0 -i 13 -a 0 -x {1.0 3.0 -1 ------- null}
+ -t 0.58 -s 1 -d 2 -p cbr -e 500 -c 0 -i 16 -a 0 -x {1.0 3.0 16 ------- null}
- -t 0.58 -s 1 -d 2 -p cbr -e 500 -c 0 -i 16 -a 0 -x {1.0 3.0 16 ------- null}
h -t 0.58 -s 1 -d 2 -p cbr -e 500 -c 0 -i 16 -a 0 -x {1.0 3.0 -1 ------- null}
r -t 0.583 -s 2 -d 3 -p cbr -e 500 -c 0 -i 11 -a 0 -x {1.0 3.0 11 ------- null}
r -t 0.584 -s 1 -d 2 -p cbr -e 500 -c 0 -i 14 -a 0 -x {1.0 3.0 14 ------- null}
+ -t 0.584 -s 2 -d 3 -p cbr -e 500 -c 0 -i 14 -a 0 -x {1.0 3.0 14 ------- null}
- -t 0.584 -s 2 -d 3 -p cbr -e 500 -c 0 -i 14 -a 0 -x {1.0 3.0 14 ------- null}
h -t 0.584 -s 2 -d 3 -p cbr -e 500 -c 0 -i 14 -a 0 -x {1.0 3.0 -1 ------- null}
+ -t 0.585 -s 1 -d 2 -p cbr -e 500 -c 0 -i 17 -a 0 -x {1.0 3.0 17 ------- null}
- -t 0.585 -s 1 -d 2 -p cbr -e 500 -c 0 -i 17 -a 0 -x {1.0 3.0 17 ------- null}
h -t 0.585 -s 1 -d 2 -p cbr -e 500 -c 0 -i 17 -a 0 -x {1.0 3.0 -1 ------- null}
r -t 0.588 -s 2 -d 3 -p cbr -e 500 -c 0 -i 12 -a 0 -x {1.0 3.0 12 ------- null}
r -t 0.589 -s 1 -d 2 -p cbr -e 500 -c 0 -i 15 -a 0 -x {1.0 3.0 15 ------- null}
+ -t 0.589 -s 2 -d 3 -p cbr -e 500 -c 0 -i 15 -a 0 -x {1.0 3.0 15 ------- null}
- -t 0.589 -s 2 -d 3 -p cbr -e 500 -c 0 -i 15 -a 0 -x {1.0 3.0 15 ------- null}
h -t 0.589 -s 2 -d 3 -p cbr -e 500 -c 0 -i 15 -a 0 -x {1.0 3.0 -1 ------- null}
+ -t 0.59 -s 1 -d 2 -p cbr -e 500 -c 0 -i 18 -a 0 -x {1.0 3.0 18 ------- null}
- -t 0.59 -s 1 -d 2 -p cbr -e 500 -c 0 -i 18 -a 0 -x {1.0 3.0 18 ------- null}
h -t 0.59 -s 1 -d 2 -p cbr -e 500 -c 0 -i 18 -a 0 -x {1.0 3.0 -1 ------- null}
r -t 0.593 -s 2 -d 3 -p cbr -e 500 -c 0 -i 13 -a 0 -x {1.0 3.0 13 ------- null}
r -t 0.594 -s 1 -d 2 -p cbr -e 500 -c 0 -i 16 -a 0 -x {1.0 3.0 16 ------- null}
+ -t 0.594 -s 2 -d 3 -p cbr -e 500 -c 0 -i 16 -a 0 -x {1.0 3.0 16 ------- null}
- -t 0.594 -s 2 -d 3 -p cbr -e 500 -c 0 -i 16 -a 0 -x {1.0 3.0 16 ------- null}
h -t 0.594 -s 2 -d 3 -p cbr -e 500 -c 0 -i 16 -a 0 -x {1.0 3.0 -1 ------- null}
+ -t 0.595 -s 1 -d 2 -p cbr -e 500 -c 0 -i 19 -a 0 -x {1.0 3.0 19 ------- null}
- -t 0.595 -s 1 -d 2 -p cbr -e 500 -c 0 -i 19 -a 0 -x {1.0 3.0 19 ------- null}
h -t 0.595 -s 1 -d 2 -p cbr -e 500 -c 0 -i 19 -a 0 -x {1.0 3.0 -1 ------- null}
r -t 0.598 -s 2 -d 3 -p cbr -e 500 -c 0 -i 14 -a 0 -x {1.0 3.0 14 ------- null}
r -t 0.599 -s 1 -d 2 -p cbr -e 500 -c 0 -i 17 -a 0 -x {1.0 3.0 17 ------- null}
+ -t 0.599 -s 2 -d 3 -p cbr -e 500 -c 0 -i 17 -a 0 -x {1.0 3.0 17 ------- null}
- -t 0.599 -s 2 -d 3 -p cbr -e 500 -c 0 -i 17 -a 0 -x {1.0 3.0 17 ------- null}
h -t 0.599 -s 2 -d 3 -p cbr -e 500 -c 0 -i 17 -a 0 -x {1.0 3.0 -1 ------- null}
+ -t 0.6 -s 1 -d 2 -p cbr -e 500 -c 0 -i 20 -a 0 -x {1.0 3.0 20 ------- null}
- -t 0.6 -s 1 -d 2 -p cbr -e 500 -c 0 -i 20 -a 0 -x {1.0 3.0 20 ------- null}
h -t 0.6 -s 1 -d 2 -p cbr -e 500 -c 0 -i 20 -a 0 -x {1.0 3.0 -1 ------- null}
r -t 0.603 -s 2 -d 3 -p cbr -e 500 -c 0 -i 15 -a 0 -x {1.0 3.0 15 ------- null}
r -t 0.604 -s 1 -d 2 -p cbr -e 500 -c 0 -i 18 -a 0 -x {1.0 3.0 18 ------- null}
+ -t 0.604 -s 2 -d 3 -p cbr -e 500 -c 0 -i 18 -a 0 -x {1.0 3.0 18 ------- null}
- -t 0.604 -s 2 -d 3 -p cbr -e 500 -c 0 -i 18 -a 0 -x {1.0 3.0 18 ------- null}
h -t 0.604 -s 2 -d 3 -p cbr -e 500 -c 0 -i 18 -a 0 -x {1.0 3.0 -1 ------- null}
+ -t 0.605 -s 1 -d 2 -p cbr -e 500 -c 0 -i 21 -a 0 -x {1.0 3.0 21 ------- null}
- -t 0.605 -s 1 -d 2 -p cbr -e 500 -c 0 -i 21 -a 0 -x {1.0 3.0 21 ------- null}
h -t 0.605 -s 1 -d 2 -p cbr -e 500 -c 0 -i 21 -a 0 -x {1.0 3.0 -1 ------- null}
r -t 0.608 -s 2 -d 3 -p cbr -e 500 -c 0 -i 16 -a 0 -x {1.0 3.0 16 ------- null}
r -t 0.609 -s 1 -d 2 -p cbr -e 500 -c 0 -i 19 -a 0 -x {1.0 3.0 19 ------- null}
+ -t 0.609 -s 2 -d 3 -p cbr -e 500 -c 0 -i 19 -a 0 -x {1.0 3.0 19 ------- null}
- -t 0.609 -s 2 -d 3 -p cbr -e 500 -c 0 -i 19 -a 0 -x {1.0 3.0 19 ------- null}
h -t 0.609 -s 2 -d 3 -p cbr -e 500 -c 0 -i 19 -a 0 -x {1.0 3.0 -1 ------- null}
+ -t 0.61 -s 1 -d 2 -p cbr -e 500 -c 0 -i 22 -a 0 -x {1.0 3.0 22 ------- null}
- -t 0.61 -s 1 -d 2 -p cbr -e 500 -c 0 -i 22 -a 0 -x {1.0 3.0 22 ------- null}
h -t 0.61 -s 1 -d 2 -p cbr -e 500 -c 0 -i 22 -a 0 -x {1.0 3.0 -1 ------- null}
r -t 0.613 -s 2 -d 3 -p cbr -e 500 -c 0 -i 17 -a 0 -x {1.0 3.0 17 ------- null}
r -t 0.614 -s 1 -d 2 -p cbr -e 500 -c 0 -i 20 -a 0 -x {1.0 3.0 20 ------- null}
+ -t 0.614 -s 2 -d 3 -p cbr -e 500 -c 0 -i 20 -a 0 -x {1.0 3.0 20 ------- null}
- -t 0.614 -s 2 -d 3 -p cbr -e 500 -c 0 -i 20 -a 0 -x {1.0 3.0 20 ------- null}
h -t 0.614 -s 2 -d 3 -p cbr -e 500 -c 0 -i 20 -a 0 -x {1.0 3.0 -1 ------- null}
+ -t 0.615 -s 1 -d 2 -p cbr -e 500 -c 0 -i 23 -a 0 -x {1.0 3.0 23 ------- null}
- -t 0.615 -s 1 -d 2 -p cbr -e 500 -c 0 -i 23 -a 0 -x {1.0 3.0 23 ------- null}
h -t 0.615 -s 1 -d 2 -p cbr -e 500 -c 0 -i 23 -a 0 -x {1.0 3.0 -1 ------- null}
r -t 0.618 -s 2 -d 3 -p cbr -e 500 -c 0 -i 18 -a 0 -x {1.0 3.0 18 ------- null}
r -t 0.619 -s 1 -d 2 -p cbr -e 500 -c 0 -i 21 -a 0 -x {1.0 3.0 21 ------- null}
+ -t 0.619 -s 2 -d 3 -p cbr -e 500 -c 0 -i 21 -a 0 -x {1.0 3.0 21 ------- null}
- -t 0.619 -s 2 -d 3 -p cbr -e 500 -c 0 -i 21 -a 0 -x {1.0 3.0 21 ------- null}
h -t 0.619 -s 2 -d 3 -p cbr -e 500 -c 0 -i 21 -a 0 -x {1.0 3.0 -1 ------- null}
+ -t 0.62 -s 1 -d 2 -p cbr -e 500 -c 0 -i 24 -a 0 -x {1.0 3.0 24 ------- null}
- -t 0.62 -s 1 -d 2 -p cbr -e 500 -c 0 -i 24 -a 0 -x {1.0 3.0 24 ------- null}
h -t 0.62 -s 1 -d 2 -p cbr -e 500 -c 0 -i 24 -a 0 -x {1.0 3.0 -1 ------- null}
r -t 0.623 -s 2 -d 3 -p cbr -e 500 -c 0 -i 19 -a 0 -x {1.0 3.0 19 ------- null}
r -t 0.624 -s 1 -d 2 -p cbr -e 500 -c 0 -i 22 -a 0 -x {1.0 3.0 22 ------- null}
+ -t 0.624 -s 2 -d 3 -p cbr -e 500 -c 0 -i 22 -a 0 -x {1.0 3.0 22 ------- null}
- -t 0.624 -s 2 -d 3 -p cbr -e 500 -c 0 -i 22 -a 0 -x {1.0 3.0 22 ------- null}
h -t 0.624 -s 2 -d 3 -p cbr -e 500 -c 0 -i 22 -a 0 -x {1.0 3.0 -1 ------- null}
+ -t 0.625 -s 1 -d 2 -p cbr -e 500 -c 0 -i 25 -a 0 -x {1.0 3.0 25 ------- null}
- -t 0.625 -s 1 -d 2 -p cbr -e 500 -c 0 -i 25 -a 0 -x {1.0 3.0 25 ------- null}
h -t 0.625 -s 1 -d 2 -p cbr -e 500 -c 0 -i 25 -a 0 -x {1.0 3.0 -1 ------- null}
r -t 0.628 -s 2 -d 3 -p cbr -e 500 -c 0 -i 20 -a 0 -x {1.0 3.0 20 ------- null}
r -t 0.629 -s 1 -d 2 -p cbr -e 500 -c 0 -i 23 -a 0 -x {1.0 3.0 23 ------- null}
+ -t 0.629 -s 2 -d 3 -p cbr -e 500 -c 0 -i 23 -a 0 -x {1.0 3.0 23 ------- null}
- -t 0.629 -s 2 -d 3 -p cbr -e 500 -c 0 -i 23 -a 0 -x {1.0 3.0 23 ------- null}
h -t 0.629 -s 2 -d 3 -p cbr -e 500 -c 0 -i 23 -a 0 -x {1.0 3.0 -1 ------- null}
+ -t 0.63 -s 1 -d 2 -p cbr -e 500 -c 0 -i 26 -a 0 -x {1.0 3.0 26 ------- null}
- -t 0.63 -s 1 -d 2 -p cbr -e 500 -c 0 -i 26 -a 0 -x {1.0 3.0 26 ------- null}
h -t 0.63 -s 1 -d 2 -p cbr -e 500 -c 0 -i 26 -a 0 -x {1.0 3.0 -1 ------- null}
r -t 0.633 -s 2 -d 3 -p cbr -e 500 -c 0 -i 21 -a 0 -x {1.0 3.0 21 ------- null}
r -t 0.634 -s 1 -d 2 -p cbr -e 500 -c 0 -i 24 -a 0 -x {1.0 3.0 24 ------- null}
+ -t 0.634 -s 2 -d 3 -p cbr -e 500 -c 0 -i 24 -a 0 -x {1.0 3.0 24 ------- null}
- -t 0.634 -s 2 -d 3 -p cbr -e 500 -c 0 -i 24 -a 0 -x {1.0 3.0 24 ------- null}
h -t 0.634 -s 2 -d 3 -p cbr -e 500 -c 0 -i 24 -a 0 -x {1.0 3.0 -1 ------- null}
+ -t 0.635 -s 1 -d 2 -p cbr -e 500 -c 0 -i 27 -a 0 -x {1.0 3.0 27 ------- null}
- -t 0.635 -s 1 -d 2 -p cbr -e 500 -c 0 -i 27 -a 0 -x {1.0 3.0 27 ------- null}
h -t 0.635 -s 1 -d 2 -p cbr -e 500 -c 0 -i 27 -a 0 -x {1.0 3.0 -1 ------- null}
r -t 0.638 -s 2 -d 3 -p cbr -e 500 -c 0 -i 22 -a 0 -x {1.0 3.0 22 ------- null}
r -t 0.639 -s 1 -d 2 -p cbr -e 500 -c 0 -i 25 -a 0 -x {1.0 3.0 25 ------- null}
+ -t 0.639 -s 2 -d 3 -p cbr -e 500 -c 0 -i 25 -a 0 -x {1.0 3.0 25 ------- null}
- -t 0.639 -s 2 -d 3 -p cbr -e 500 -c 0 -i 25 -a 0 -x {1.0 3.0 25 ------- null}
h -t 0.639 -s 2 -d 3 -p cbr -e 500 -c 0 -i 25 -a 0 -x {1.0 3.0 -1 ------- null}
+ -t 0.64 -s 1 -d 2 -p cbr -e 500 -c 0 -i 28 -a 0 -x {1.0 3.0 28 ------- null}
- -t 0.64 -s 1 -d 2 -p cbr -e 500 -c 0 -i 28 -a 0 -x {1.0 3.0 28 ------- null}
h -t 0.64 -s 1 -d 2 -p cbr -e 500 -c 0 -i 28 -a 0 -x {1.0 3.0 -1 ------- null}
r -t 0.643 -s 2 -d 3 -p cbr -e 500 -c 0 -i 23 -a 0 -x {1.0 3.0 23 ------- null}
r -t 0.644 -s 1 -d 2 -p cbr -e 500 -c 0 -i 26 -a 0 -x {1.0 3.0 26 ------- null}
+ -t 0.644 -s 2 -d 3 -p cbr -e 500 -c 0 -i 26 -a 0 -x {1.0 3.0 26 ------- null}
- -t 0.644 -s 2 -d 3 -p cbr -e 500 -c 0 -i 26 -a 0 -x {1.0 3.0 26 ------- null}
h -t 0.644 -s 2 -d 3 -p cbr -e 500 -c 0 -i 26 -a 0 -x {1.0 3.0 -1 ------- null}
+ -t 0.645 -s 1 -d 2 -p cbr -e 500 -c 0 -i 29 -a 0 -x {1.0 3.0 29 ------- null}
- -t 0.645 -s 1 -d 2 -p cbr -e 500 -c 0 -i 29 -a 0 -x {1.0 3.0 29 ------- null}
h -t 0.645 -s 1 -d 2 -p cbr -e 500 -c 0 -i 29 -a 0 -x {1.0 3.0 -1 ------- null}
r -t 0.648 -s 2 -d 3 -p cbr -e 500 -c 0 -i 24 -a 0 -x {1.0 3.0 24 ------- null}
r -t 0.649 -s 1 -d 2 -p cbr -e 500 -c 0 -i 27 -a 0 -x {1.0 3.0 27 ------- null}
+ -t 0.649 -s 2 -d 3 -p cbr -e 500 -c 0 -i 27 -a 0 -x {1.0 3.0 27 ------- null}
- -t 0.649 -s 2 -d 3 -p cbr -e 500 -c 0 -i 27 -a 0 -x {1.0 3.0 27 ------- null}
h -t 0.649 -s 2 -d 3 -p cbr -e 500 -c 0 -i 27 -a 0 -x {1.0 3.0 -1 ------- null}
+ -t 0.65 -s 1 -d 2 -p cbr -e 500 -c 0 -i 30 -a 0 -x {1.0 3.0 30 ------- null}
- -t 0.65 -s 1 -d 2 -p cbr -e 500 -c 0 -i 30 -a 0 -x {1.0 3.0 30 ------- null}
h -t 0.65 -s 1 -d 2 -p cbr -e 500 -c 0 -i 30 -a 0 -x {1.0 3.0 -1 ------- null}
r -t 0.653 -s 2 -d 3 -p cbr -e 500 -c 0 -i 25 -a 0 -x {1.0 3.0 25 ------- null}
r -t 0.654 -s 1 -d 2 -p cbr -e 500 -c 0 -i 28 -a 0 -x {1.0 3.0 28 ------- null}
+ -t 0.654 -s 2 -d 3 -p cbr -e 500 -c 0 -i 28 -a 0 -x {1.0 3.0 28 ------- null}
- -t 0.654 -s 2 -d 3 -p cbr -e 500 -c 0 -i 28 -a 0 -x {1.0 3.0 28 ------- null}
h -t 0.654 -s 2 -d 3 -p cbr -e 500 -c 0 -i 28 -a 0 -x {1.0 3.0 -1 ------- null}
+ -t 0.655 -s 1 -d 2 -p cbr -e 500 -c 0 -i 31 -a 0 -x {1.0 3.0 31 ------- null}
- -t 0.655 -s 1 -d 2 -p cbr -e 500 -c 0 -i 31 -a 0 -x {1.0 3.0 31 ------- null}
h -t 0.655 -s 1 -d 2 -p cbr -e 500 -c 0 -i 31 -a 0 -x {1.0 3.0 -1 ------- null}
r -t 0.658 -s 2 -d 3 -p cbr -e 500 -c 0 -i 26 -a 0 -x {1.0 3.0 26 ------- null}
r -t 0.659 -s 1 -d 2 -p cbr -e 500 -c 0 -i 29 -a 0 -x {1.0 3.0 29 ------- null}
+ -t 0.659 -s 2 -d 3 -p cbr -e 500 -c 0 -i 29 -a 0 -x {1.0 3.0 29 ------- null}
- -t 0.659 -s 2 -d 3 -p cbr -e 500 -c 0 -i 29 -a 0 -x {1.0 3.0 29 ------- null}
h -t 0.659 -s 2 -d 3 -p cbr -e 500 -c 0 -i 29 -a 0 -x {1.0 3.0 -1 ------- null}
+ -t 0.66 -s 1 -d 2 -p cbr -e 500 -c 0 -i 32 -a 0 -x {1.0 3.0 32 ------- null}
- -t 0.66 -s 1 -d 2 -p cbr -e 500 -c 0 -i 32 -a 0 -x {1.0 3.0 32 ------- null}
h -t 0.66 -s 1 -d 2 -p cbr -e 500 -c 0 -i 32 -a 0 -x {1.0 3.0 -1 ------- null}
r -t 0.663 -s 2 -d 3 -p cbr -e 500 -c 0 -i 27 -a 0 -x {1.0 3.0 27 ------- null}
r -t 0.664 -s 1 -d 2 -p cbr -e 500 -c 0 -i 30 -a 0 -x {1.0 3.0 30 ------- null}
+ -t 0.664 -s 2 -d 3 -p cbr -e 500 -c 0 -i 30 -a 0 -x {1.0 3.0 30 ------- null}
- -t 0.664 -s 2 -d 3 -p cbr -e 500 -c 0 -i 30 -a 0 -x {1.0 3.0 30 ------- null}
h -t 0.664 -s 2 -d 3 -p cbr -e 500 -c 0 -i 30 -a 0 -x {1.0 3.0 -1 ------- null}
+ -t 0.665 -s 1 -d 2 -p cbr -e 500 -c 0 -i 33 -a 0 -x {1.0 3.0 33 ------- null}
- -t 0.665 -s 1 -d 2 -p cbr -e 500 -c 0 -i 33 -a 0 -x {1.0 3.0 33 ------- null}
h -t 0.665 -s 1 -d 2 -p cbr -e 500 -c 0 -i 33 -a 0 -x {1.0 3.0 -1 ------- null}
r -t 0.668 -s 2 -d 3 -p cbr -e 500 -c 0 -i 28 -a 0 -x {1.0 3.0 28 ------- null}
r -t 0.669 -s 1 -d 2 -p cbr -e 500 -c 0 -i 31 -a 0 -x {1.0 3.0 31 ------- null}
+ -t 0.669 -s 2 -d 3 -p cbr -e 500 -c 0 -i 31 -a 0 -x {1.0 3.0 31 ------- null}
- -t 0.669 -s 2 -d 3 -p cbr -e 500 -c 0 -i 31 -a 0 -x {1.0 3.0 31 ------- null}
h -t 0.669 -s 2 -d 3 -p cbr -e 500 -c 0 -i 31 -a 0 -x {1.0 3.0 -1 ------- null}
+ -t 0.67 -s 1 -d 2 -p cbr -e 500 -c 0 -i 34 -a 0 -x {1.0 3.0 34 ------- null}
- -t 0.67 -s 1 -d 2 -p cbr -e 500 -c 0 -i 34 -a 0 -x {1.0 3.0 34 ------- null}
h -t 0.67 -s 1 -d 2 -p cbr -e 500 -c 0 -i 34 -a 0 -x {1.0 3.0 -1 ------- null}
r -t 0.673 -s 2 -d 3 -p cbr -e 500 -c 0 -i 29 -a 0 -x {1.0 3.0 29 ------- null}
r -t 0.674 -s 1 -d 2 -p cbr -e 500 -c 0 -i 32 -a 0 -x {1.0 3.0 32 ------- null}
+ -t 0.674 -s 2 -d 3 -p cbr -e 500 -c 0 -i 32 -a 0 -x {1.0 3.0 32 ------- null}
- -t 0.674 -s 2 -d 3 -p cbr -e 500 -c 0 -i 32 -a 0 -x {1.0 3.0 32 ------- null}
h -t 0.674 -s 2 -d 3 -p cbr -e 500 -c 0 -i 32 -a 0 -x {1.0 3.0 -1 ------- null}
+ -t 0.675 -s 1 -d 2 -p cbr -e 500 -c 0 -i 35 -a 0 -x {1.0 3.0 35 ------- null}
- -t 0.675 -s 1 -d 2 -p cbr -e 500 -c 0 -i 35 -a 0 -x {1.0 3.0 35 ------- null}
h -t 0.675 -s 1 -d 2 -p cbr -e 500 -c 0 -i 35 -a 0 -x {1.0 3.0 -1 ------- null}
r -t 0.678 -s 2 -d 3 -p cbr -e 500 -c 0 -i 30 -a 0 -x {1.0 3.0 30 ------- null}
r -t 0.679 -s 1 -d 2 -p cbr -e 500 -c 0 -i 33 -a 0 -x {1.0 3.0 33 ------- null}
+ -t 0.679 -s 2 -d 3 -p cbr -e 500 -c 0 -i 33 -a 0 -x {1.0 3.0 33 ------- null}
- -t 0.679 -s 2 -d 3 -p cbr -e 500 -c 0 -i 33 -a 0 -x {1.0 3.0 33 ------- null}
h -t 0.679 -s 2 -d 3 -p cbr -e 500 -c 0 -i 33 -a 0 -x {1.0 3.0 -1 ------- null}
+ -t 0.68 -s 1 -d 2 -p cbr -e 500 -c 0 -i 36 -a 0 -x {1.0 3.0 36 ------- null}
- -t 0.68 -s 1 -d 2 -p cbr -e 500 -c 0 -i 36 -a 0 -x {1.0 3.0 36 ------- null}
h -t 0.68 -s 1 -d 2 -p cbr -e 500 -c 0 -i 36 -a 0 -x {1.0 3.0 -1 ------- null}
r -t 0.683 -s 2 -d 3 -p cbr -e 500 -c 0 -i 31 -a 0 -x {1.0 3.0 31 ------- null}
r -t 0.684 -s 1 -d 2 -p cbr -e 500 -c 0 -i 34 -a 0 -x {1.0 3.0 34 ------- null}
+ -t 0.684 -s 2 -d 3 -p cbr -e 500 -c 0 -i 34 -a 0 -x {1.0 3.0 34 ------- null}
- -t 0.684 -s 2 -d 3 -p cbr -e 500 -c 0 -i 34 -a 0 -x {1.0 3.0 34 ------- null}
h -t 0.684 -s 2 -d 3 -p cbr -e 500 -c 0 -i 34 -a 0 -x {1.0 3.0 -1 ------- null}
+ -t 0.685 -s 1 -d 2 -p cbr -e 500 -c 0 -i 37 -a 0 -x {1.0 3.0 37 ------- null}
- -t 0.685 -s 1 -d 2 -p cbr -e 500 -c 0 -i 37 -a 0 -x {1.0 3.0 37 ------- null}
h -t 0.685 -s 1 -d 2 -p cbr -e 500 -c 0 -i 37 -a 0 -x {1.0 3.0 -1 ------- null}
r -t 0.688 -s 2 -d 3 -p cbr -e 500 -c 0 -i 32 -a 0 -x {1.0 3.0 32 ------- null}
r -t 0.689 -s 1 -d 2 -p cbr -e 500 -c 0 -i 35 -a 0 -x {1.0 3.0 35 ------- null}
+ -t 0.689 -s 2 -d 3 -p cbr -e 500 -c 0 -i 35 -a 0 -x {1.0 3.0 35 ------- null}
- -t 0.689 -s 2 -d 3 -p cbr -e 500 -c 0 -i 35 -a 0 -x {1.0 3.0 35 ------- null}
h -t 0.689 -s 2 -d 3 -p cbr -e 500 -c 0 -i 35 -a 0 -x {1.0 3.0 -1 ------- null}
+ -t 0.69 -s 1 -d 2 -p cbr -e 500 -c 0 -i 38 -a 0 -x {1.0 3.0 38 ------- null}
- -t 0.69 -s 1 -d 2 -p cbr -e 500 -c 0 -i 38 -a 0 -x {1.0 3.0 38 ------- null}
h -t 0.69 -s 1 -d 2 -p cbr -e 500 -c 0 -i 38 -a 0 -x {1.0 3.0 -1 ------- null}
r -t 0.693 -s 2 -d 3 -p cbr -e 500 -c 0 -i 33 -a 0 -x {1.0 3.0 33 ------- null}
r -t 0.694 -s 1 -d 2 -p cbr -e 500 -c 0 -i 36 -a 0 -x {1.0 3.0 36 ------- null}
+ -t 0.694 -s 2 -d 3 -p cbr -e 500 -c 0 -i 36 -a 0 -x {1.0 3.0 36 ------- null}
- -t 0.694 -s 2 -d 3 -p cbr -e 500 -c 0 -i 36 -a 0 -x {1.0 3.0 36 ------- null}
h -t 0.694 -s 2 -d 3 -p cbr -e 500 -c 0 -i 36 -a 0 -x {1.0 3.0 -1 ------- null}
+ -t 0.695 -s 1 -d 2 -p cbr -e 500 -c 0 -i 39 -a 0 -x {1.0 3.0 39 ------- null}
- -t 0.695 -s 1 -d 2 -p cbr -e 500 -c 0 -i 39 -a 0 -x {1.0 3.0 39 ------- null}
h -t 0.695 -s 1 -d 2 -p cbr -e 500 -c 0 -i 39 -a 0 -x {1.0 3.0 -1 ------- null}
r -t 0.698 -s 2 -d 3 -p cbr -e 500 -c 0 -i 34 -a 0 -x {1.0 3.0 34 ------- null}
r -t 0.699 -s 1 -d 2 -p cbr -e 500 -c 0 -i 37 -a 0 -x {1.0 3.0 37 ------- null}
+ -t 0.699 -s 2 -d 3 -p cbr -e 500 -c 0 -i 37 -a 0 -x {1.0 3.0 37 ------- null}
- -t 0.699 -s 2 -d 3 -p cbr -e 500 -c 0 -i 37 -a 0 -x {1.0 3.0 37 ------- null}
h -t 0.699 -s 2 -d 3 -p cbr -e 500 -c 0 -i 37 -a 0 -x {1.0 3.0 -1 ------- null}
+ -t 0.7 -s 1 -d 2 -p cbr -e 500 -c 0 -i 40 -a 0 -x {1.0 3.0 40 ------- null}
- -t 0.7 -s 1 -d 2 -p cbr -e 500 -c 0 -i 40 -a 0 -x {1.0 3.0 40 ------- null}
h -t 0.7 -s 1 -d 2 -p cbr -e 500 -c 0 -i 40 -a 0 -x {1.0 3.0 -1 ------- null}
r -t 0.703 -s 2 -d 3 -p cbr -e 500 -c 0 -i 35 -a 0 -x {1.0 3.0 35 ------- null}
r -t 0.704 -s 1 -d 2 -p cbr -e 500 -c 0 -i 38 -a 0 -x {1.0 3.0 38 ------- null}
+ -t 0.704 -s 2 -d 3 -p cbr -e 500 -c 0 -i 38 -a 0 -x {1.0 3.0 38 ------- null}
- -t 0.704 -s 2 -d 3 -p cbr -e 500 -c 0 -i 38 -a 0 -x {1.0 3.0 38 ------- null}
h -t 0.704 -s 2 -d 3 -p cbr -e 500 -c 0 -i 38 -a 0 -x {1.0 3.0 -1 ------- null}
+ -t 0.705 -s 1 -d 2 -p cbr -e 500 -c 0 -i 41 -a 0 -x {1.0 3.0 41 ------- null}
- -t 0.705 -s 1 -d 2 -p cbr -e 500 -c 0 -i 41 -a 0 -x {1.0 3.0 41 ------- null}
h -t 0.705 -s 1 -d 2 -p cbr -e 500 -c 0 -i 41 -a 0 -x {1.0 3.0 -1 ------- null}
r -t 0.708 -s 2 -d 3 -p cbr -e 500 -c 0 -i 36 -a 0 -x {1.0 3.0 36 ------- null}
r -t 0.709 -s 1 -d 2 -p cbr -e 500 -c 0 -i 39 -a 0 -x {1.0 3.0 39 ------- null}
+ -t 0.709 -s 2 -d 3 -p cbr -e 500 -c 0 -i 39 -a 0 -x {1.0 3.0 39 ------- null}
- -t 0.709 -s 2 -d 3 -p cbr -e 500 -c 0 -i 39 -a 0 -x {1.0 3.0 39 ------- null}
h -t 0.709 -s 2 -d 3 -p cbr -e 500 -c 0 -i 39 -a 0 -x {1.0 3.0 -1 ------- null}
+ -t 0.71 -s 1 -d 2 -p cbr -e 500 -c 0 -i 42 -a 0 -x {1.0 3.0 42 ------- null}
- -t 0.71 -s 1 -d 2 -p cbr -e 500 -c 0 -i 42 -a 0 -x {1.0 3.0 42 ------- null}
h -t 0.71 -s 1 -d 2 -p cbr -e 500 -c 0 -i 42 -a 0 -x {1.0 3.0 -1 ------- null}
r -t 0.713 -s 2 -d 3 -p cbr -e 500 -c 0 -i 37 -a 0 -x {1.0 3.0 37 ------- null}
r -t 0.714 -s 1 -d 2 -p cbr -e 500 -c 0 -i 40 -a 0 -x {1.0 3.0 40 ------- null}
+ -t 0.714 -s 2 -d 3 -p cbr -e 500 -c 0 -i 40 -a 0 -x {1.0 3.0 40 ------- null}
- -t 0.714 -s 2 -d 3 -p cbr -e 500 -c 0 -i 40 -a 0 -x {1.0 3.0 40 ------- null}
h -t 0.714 -s 2 -d 3 -p cbr -e 500 -c 0 -i 40 -a 0 -x {1.0 3.0 -1 ------- null}
+ -t 0.715 -s 1 -d 2 -p cbr -e 500 -c 0 -i 43 -a 0 -x {1.0 3.0 43 ------- null}
- -t 0.715 -s 1 -d 2 -p cbr -e 500 -c 0 -i 43 -a 0 -x {1.0 3.0 43 ------- null}
h -t 0.715 -s 1 -d 2 -p cbr -e 500 -c 0 -i 43 -a 0 -x {1.0 3.0 -1 ------- null}
r -t 0.718 -s 2 -d 3 -p cbr -e 500 -c 0 -i 38 -a 0 -x {1.0 3.0 38 ------- null}
r -t 0.719 -s 1 -d 2 -p cbr -e 500 -c 0 -i 41 -a 0 -x {1.0 3.0 41 ------- null}
+ -t 0.719 -s 2 -d 3 -p cbr -e 500 -c 0 -i 41 -a 0 -x {1.0 3.0 41 ------- null}
- -t 0.719 -s 2 -d 3 -p cbr -e 500 -c 0 -i 41 -a 0 -x {1.0 3.0 41 ------- null}
h -t 0.719 -s 2 -d 3 -p cbr -e 500 -c 0 -i 41 -a 0 -x {1.0 3.0 -1 ------- null}
+ -t 0.72 -s 1 -d 2 -p cbr -e 500 -c 0 -i 44 -a 0 -x {1.0 3.0 44 ------- null}
- -t 0.72 -s 1 -d 2 -p cbr -e 500 -c 0 -i 44 -a 0 -x {1.0 3.0 44 ------- null}
h -t 0.72 -s 1 -d 2 -p cbr -e 500 -c 0 -i 44 -a 0 -x {1.0 3.0 -1 ------- null}
r -t 0.723 -s 2 -d 3 -p cbr -e 500 -c 0 -i 39 -a 0 -x {1.0 3.0 39 ------- null}
r -t 0.724 -s 1 -d 2 -p cbr -e 500 -c 0 -i 42 -a 0 -x {1.0 3.0 42 ------- null}
+ -t 0.724 -s 2 -d 3 -p cbr -e 500 -c 0 -i 42 -a 0 -x {1.0 3.0 42 ------- null}
- -t 0.724 -s 2 -d 3 -p cbr -e 500 -c 0 -i 42 -a 0 -x {1.0 3.0 42 ------- null}
h -t 0.724 -s 2 -d 3 -p cbr -e 500 -c 0 -i 42 -a 0 -x {1.0 3.0 -1 ------- null}
+ -t 0.725 -s 1 -d 2 -p cbr -e 500 -c 0 -i 45 -a 0 -x {1.0 3.0 45 ------- null}
- -t 0.725 -s 1 -d 2 -p cbr -e 500 -c 0 -i 45 -a 0 -x {1.0 3.0 45 ------- null}
h -t 0.725 -s 1 -d 2 -p cbr -e 500 -c 0 -i 45 -a 0 -x {1.0 3.0 -1 ------- null}
r -t 0.728 -s 2 -d 3 -p cbr -e 500 -c 0 -i 40 -a 0 -x {1.0 3.0 40 ------- null}
r -t 0.729 -s 1 -d 2 -p cbr -e 500 -c 0 -i 43 -a 0 -x {1.0 3.0 43 ------- null}
+ -t 0.729 -s 2 -d 3 -p cbr -e 500 -c 0 -i 43 -a 0 -x {1.0 3.0 43 ------- null}
- -t 0.729 -s 2 -d 3 -p cbr -e 500 -c 0 -i 43 -a 0 -x {1.0 3.0 43 ------- null}
h -t 0.729 -s 2 -d 3 -p cbr -e 500 -c 0 -i 43 -a 0 -x {1.0 3.0 -1 ------- null}
+ -t 0.73 -s 1 -d 2 -p cbr -e 500 -c 0 -i 46 -a 0 -x {1.0 3.0 46 ------- null}
- -t 0.73 -s 1 -d 2 -p cbr -e 500 -c 0 -i 46 -a 0 -x {1.0 3.0 46 ------- null}
h -t 0.73 -s 1 -d 2 -p cbr -e 500 -c 0 -i 46 -a 0 -x {1.0 3.0 -1 ------- null}
r -t 0.733 -s 2 -d 3 -p cbr -e 500 -c 0 -i 41 -a 0 -x {1.0 3.0 41 ------- null}
r -t 0.734 -s 1 -d 2 -p cbr -e 500 -c 0 -i 44 -a 0 -x {1.0 3.0 44 ------- null}
+ -t 0.734 -s 2 -d 3 -p cbr -e 500 -c 0 -i 44 -a 0 -x {1.0 3.0 44 ------- null}
- -t 0.734 -s 2 -d 3 -p cbr -e 500 -c 0 -i 44 -a 0 -x {1.0 3.0 44 ------- null}
h -t 0.734 -s 2 -d 3 -p cbr -e 500 -c 0 -i 44 -a 0 -x {1.0 3.0 -1 ------- null}
+ -t 0.735 -s 1 -d 2 -p cbr -e 500 -c 0 -i 47 -a 0 -x {1.0 3.0 47 ------- null}
- -t 0.735 -s 1 -d 2 -p cbr -e 500 -c 0 -i 47 -a 0 -x {1.0 3.0 47 ------- null}
h -t 0.735 -s 1 -d 2 -p cbr -e 500 -c 0 -i 47 -a 0 -x {1.0 3.0 -1 ------- null}
r -t 0.738 -s 2 -d 3 -p cbr -e 500 -c 0 -i 42 -a 0 -x {1.0 3.0 42 ------- null}
r -t 0.739 -s 1 -d 2 -p cbr -e 500 -c 0 -i 45 -a 0 -x {1.0 3.0 45 ------- null}
+ -t 0.739 -s 2 -d 3 -p cbr -e 500 -c 0 -i 45 -a 0 -x {1.0 3.0 45 ------- null}
- -t 0.739 -s 2 -d 3 -p cbr -e 500 -c 0 -i 45 -a 0 -x {1.0 3.0 45 ------- null}
h -t 0.739 -s 2 -d 3 -p cbr -e 500 -c 0 -i 45 -a 0 -x {1.0 3.0 -1 ------- null}
+ -t 0.74 -s 1 -d 2 -p cbr -e 500 -c 0 -i 48 -a 0 -x {1.0 3.0 48 ------- null}