+ 0.5 0 1 cbr 500 ------- 0 0.0 2.0 0 0
- 0.5 0 1 cbr 500 ------- 0 0.0 2.0 0 0
+ 0.505 0 1 cbr 500 ------- 0 0.0 2.0 1 1
- 0.508 0 1 cbr 500 ------- 0 0.0 2.0 1 1
+ 0.51 0 1 cbr 500 ------- 0 0.0 2.0 2 2
+ 0.515 0 1 cbr 500 ------- 0 0.0 2.0 3 3
- 0.516 0 1 cbr 500 ------- 0 0.0 2.0 2 2
r 0.518 0 1 cbr 500 ------- 0 0.0 2.0 0 0
+ 0.518 1 2 cbr 500 ------- 0 0.0 2.0 0 0
- 0.518 1 2 cbr 500 ------- 0 0.0 2.0 0 0
+ 0.52 0 1 cbr 500 ------- 0 0.0 2.0 4 4
- 0.524 0 1 cbr 500 ------- 0 0.0 2.0 3 3
+ 0.525 0 1 cbr 500 ------- 0 0.0 2.0 5 5
r 0.526 0 1 cbr 500 ------- 0 0.0 2.0 1 1
+ 0.526 1 2 cbr 500 ------- 0 0.0 2.0 1 1
- 0.526 1 2 cbr 500 ------- 0 0.0 2.0 1 1
+ 0.53 0 1 cbr 500 ------- 0 0.0 2.0 6 6
- 0.532 0 1 cbr 500 ------- 0 0.0 2.0 4 4
r 0.534 0 1 cbr 500 ------- 0 0.0 2.0 2 2
+ 0.534 1 2 cbr 500 ------- 0 0.0 2.0 2 2
- 0.534 1 2 cbr 500 ------- 0 0.0 2.0 2 2
+ 0.535 0 1 cbr 500 ------- 0 0.0 2.0 7 7
r 0.536 1 2 cbr 500 ------- 0 0.0 2.0 0 0
- 0.54 0 1 cbr 500 ------- 0 0.0 2.0 5 5
+ 0.54 0 1 cbr 500 ------- 0 0.0 2.0 8 8
r 0.542 0 1 cbr 500 ------- 0 0.0 2.0 3 3
+ 0.542 1 2 cbr 500 ------- 0 0.0 2.0 3 3
- 0.542 1 2 cbr 500 ------- 0 0.0 2.0 3 3
r 0.544 1 2 cbr 500 ------- 0 0.0 2.0 1 1
+ 0.545 0 1 cbr 500 ------- 0 0.0 2.0 9 9
- 0.548 0 1 cbr 500 ------- 0 0.0 2.0 6 6
r 0.55 0 1 cbr 500 ------- 0 0.0 2.0 4 4
+ 0.55 1 2 cbr 500 ------- 0 0.0 2.0 4 4
- 0.55 1 2 cbr 500 ------- 0 0.0 2.0 4 4
+ 0.55 0 1 cbr 500 ------- 0 0.0 2.0 10 10
r 0.552 1 2 cbr 500 ------- 0 0.0 2.0 2 2
+ 0.555 0 1 cbr 500 ------- 0 0.0 2.0 11 11
- 0.556 0 1 cbr 500 ------- 0 0.0 2.0 7 7
r 0.558 0 1 cbr 500 ------- 0 0.0 2.0 5 5
+ 0.558 1 2 cbr 500 ------- 0 0.0 2.0 5 5
- 0.558 1 2 cbr 500 ------- 0 0.0 2.0 5 5
r 0.56 1 2 cbr 500 ------- 0 0.0 2.0 3 3
+ 0.56 0 1 cbr 500 ------- 0 0.0 2.0 12 12
- 0.564 0 1 cbr 500 ------- 0 0.0 2.0 8 8
+ 0.565 0 1 cbr 500 ------- 0 0.0 2.0 13 13
r 0.566 0 1 cbr 500 ------- 0 0.0 2.0 6 6
+ 0.566 1 2 cbr 500 ------- 0 0.0 2.0 6 6
- 0.566 1 2 cbr 500 ------- 0 0.0 2.0 6 6
r 0.568 1 2 cbr 500 ------- 0 0.0 2.0 4 4
+ 0.57 0 1 cbr 500 ------- 0 0.0 2.0 14 14
- 0.572 0 1 cbr 500 ------- 0 0.0 2.0 9 9
r 0.574 0 1 cbr 500 ------- 0 0.0 2.0 7 7
+ 0.574 1 2 cbr 500 ------- 0 0.0 2.0 7 7
- 0.574 1 2 cbr 500 ------- 0 0.0 2.0 7 7
+ 0.575 0 1 cbr 500 ------- 0 0.0 2.0 15 15
r 0.576 1 2 cbr 500 ------- 0 0.0 2.0 5 5
- 0.58 0 1 cbr 500 ------- 0 0.0 2.0 10 10
+ 0.58 0 1 cbr 500 ------- 0 0.0 2.0 16 16
r 0.582 0 1 cbr 500 ------- 0 0.0 2.0 8 8
+ 0.582 1 2 cbr 500 ------- 0 0.0 2.0 8 8
- 0.582 1 2 cbr 500 ------- 0 0.0 2.0 8 8
r 0.584 1 2 cbr 500 ------- 0 0.0 2.0 6 6
+ 0.585 0 1 cbr 500 ------- 0 0.0 2.0 17 17
- 0.588 0 1 cbr 500 ------- 0 0.0 2.0 11 11
r 0.59 0 1 cbr 500 ------- 0 0.0 2.0 9 9
+ 0.59 1 2 cbr 500 ------- 0 0.0 2.0 9 9
- 0.59 1 2 cbr 500 ------- 0 0.0 2.0 9 9
+ 0.59 0 1 cbr 500 ------- 0 0.0 2.0 18 18
r 0.592 1 2 cbr 500 ------- 0 0.0 2.0 7 7
+ 0.595 0 1 cbr 500 ------- 0 0.0 2.0 19 19
- 0.596 0 1 cbr 500 ------- 0 0.0 2.0 12 12
r 0.598 0 1 cbr 500 ------- 0 0.0 2.0 10 10
+ 0.598 1 2 cbr 500 ------- 0 0.0 2.0 10 10
- 0.598 1 2 cbr 500 ------- 0 0.0 2.0 10 10
r 0.6 1 2 cbr 500 ------- 0 0.0 2.0 8 8
+ 0.6 0 1 cbr 500 ------- 0 0.0 2.0 20 20
- 0.604 0 1 cbr 500 ------- 0 0.0 2.0 13 13
+ 0.605 0 1 cbr 500 ------- 0 0.0 2.0 21 21
r 0.606 0 1 cbr 500 ------- 0 0.0 2.0 11 11
+ 0.606 1 2 cbr 500 ------- 0 0.0 2.0 11 11
- 0.606 1 2 cbr 500 ------- 0 0.0 2.0 11 11
r 0.608 1 2 cbr 500 ------- 0 0.0 2.0 9 9
+ 0.61 0 1 cbr 500 ------- 0 0.0 2.0 22 22
- 0.612 0 1 cbr 500 ------- 0 0.0 2.0 14 14
r 0.614 0 1 cbr 500 ------- 0 0.0 2.0 12 12
+ 0.614 1 2 cbr 500 ------- 0 0.0 2.0 12 12
- 0.614 1 2 cbr 500 ------- 0 0.0 2.0 12 12
+ 0.615 0 1 cbr 500 ------- 0 0.0 2.0 23 23
r 0.616 1 2 cbr 500 ------- 0 0.0 2.0 10 10
- 0.62 0 1 cbr 500 ------- 0 0.0 2.0 15 15
+ 0.62 0 1 cbr 500 ------- 0 0.0 2.0 24 24
r 0.622 0 1 cbr 500 ------- 0 0.0 2.0 13 13
+ 0.622 1 2 cbr 500 ------- 0 0.0 2.0 13 13
- 0.622 1 2 cbr 500 ------- 0 0.0 2.0 13 13
r 0.624 1 2 cbr 500 ------- 0 0.0 2.0 11 11
+ 0.625 0 1 cbr 500 ------- 0 0.0 2.0 25 25
- 0.628 0 1 cbr 500 ------- 0 0.0 2.0 16 16
r 0.63 0 1 cbr 500 ------- 0 0.0 2.0 14 14
+ 0.63 1 2 cbr 500 ------- 0 0.0 2.0 14 14
- 0.63 1 2 cbr 500 ------- 0 0.0 2.0 14 14
+ 0.63 0 1 cbr 500 ------- 0 0.0 2.0 26 26
r 0.632 1 2 cbr 500 ------- 0 0.0 2.0 12 12
+ 0.635 0 1 cbr 500 ------- 0 0.0 2.0 27 27
- 0.636 0 1 cbr 500 ------- 0 0.0 2.0 17 17
r 0.638 0 1 cbr 500 ------- 0 0.0 2.0 15 15
+ 0.638 1 2 cbr 500 ------- 0 0.0 2.0 15 15
- 0.638 1 2 cbr 500 ------- 0 0.0 2.0 15 15
r 0.64 1 2 cbr 500 ------- 0 0.0 2.0 13 13
+ 0.64 0 1 cbr 500 ------- 0 0.0 2.0 28 28
- 0.644 0 1 cbr 500 ------- 0 0.0 2.0 18 18
+ 0.645 0 1 cbr 500 ------- 0 0.0 2.0 29 29
r 0.646 0 1 cbr 500 ------- 0 0.0 2.0 16 16
+ 0.646 1 2 cbr 500 ------- 0 0.0 2.0 16 16
- 0.646 1 2 cbr 500 ------- 0 0.0 2.0 16 16
r 0.648 1 2 cbr 500 ------- 0 0.0 2.0 14 14
+ 0.65 0 1 cbr 500 ------- 0 0.0 2.0 30 30
- 0.652 0 1 cbr 500 ------- 0 0.0 2.0 19 19
r 0.654 0 1 cbr 500 ------- 0 0.0 2.0 17 17
+ 0.654 1 2 cbr 500 ------- 0 0.0 2.0 17 17
- 0.654 1 2 cbr 500 ------- 0 0.0 2.0 17 17
+ 0.655 0 1 cbr 500 ------- 0 0.0 2.0 31 31
r 0.656 1 2 cbr 500 ------- 0 0.0 2.0 15 15
- 0.66 0 1 cbr 500 ------- 0 0.0 2.0 20 20
+ 0.66 0 1 cbr 500 ------- 0 0.0 2.0 32 32
r 0.662 0 1 cbr 500 ------- 0 0.0 2.0 18 18
+ 0.662 1 2 cbr 500 ------- 0 0.0 2.0 18 18
- 0.662 1 2 cbr 500 ------- 0 0.0 2.0 18 18
r 0.664 1 2 cbr 500 ------- 0 0.0 2.0 16 16
+ 0.665 0 1 cbr 500 ------- 0 0.0 2.0 33 33
- 0.668 0 1 cbr 500 ------- 0 0.0 2.0 21 21
r 0.67 0 1 cbr 500 ------- 0 0.0 2.0 19 19
+ 0.67 1 2 cbr 500 ------- 0 0.0 2.0 19 19
- 0.67 1 2 cbr 500 ------- 0 0.0 2.0 19 19
+ 0.67 0 1 cbr 500 ------- 0 0.0 2.0 34 34
r 0.672 1 2 cbr 500 ------- 0 0.0 2.0 17 17
+ 0.675 0 1 cbr 500 ------- 0 0.0 2.0 35 35
- 0.676 0 1 cbr 500 ------- 0 0.0 2.0 22 22
r 0.678 0 1 cbr 500 ------- 0 0.0 2.0 20 20
+ 0.678 1 2 cbr 500 ------- 0 0.0 2.0 20 20
- 0.678 1 2 cbr 500 ------- 0 0.0 2.0 20 20
r 0.68 1 2 cbr 500 ------- 0 0.0 2.0 18 18
+ 0.68 0 1 cbr 500 ------- 0 0.0 2.0 36 36
- 0.684 0 1 cbr 500 ------- 0 0.0 2.0 23 23
+ 0.685 0 1 cbr 500 ------- 0 0.0 2.0 37 37
r 0.686 0 1 cbr 500 ------- 0 0.0 2.0 21 21
+ 0.686 1 2 cbr 500 ------- 0 0.0 2.0 21 21
- 0.686 1 2 cbr 500 ------- 0 0.0 2.0 21 21
r 0.688 1 2 cbr 500 ------- 0 0.0 2.0 19 19
+ 0.69 0 1 cbr 500 ------- 0 0.0 2.0 38 38
- 0.692 0 1 cbr 500 ------- 0 0.0 2.0 24 24
r 0.694 0 1 cbr 500 ------- 0 0.0 2.0 22 22
+ 0.694 1 2 cbr 500 ------- 0 0.0 2.0 22 22
- 0.694 1 2 cbr 500 ------- 0 0.0 2.0 22 22
+ 0.695 0 1 cbr 500 ------- 0 0.0 2.0 39 39
r 0.696 1 2 cbr 500 ------- 0 0.0 2.0 20 20
- 0.7 0 1 cbr 500 ------- 0 0.0 2.0 25 25
+ 0.7 0 1 cbr 500 ------- 0 0.0 2.0 40 40
r 0.702 0 1 cbr 500 ------- 0 0.0 2.0 23 23
+ 0.702 1 2 cbr 500 ------- 0 0.0 2.0 23 23
- 0.702 1 2 cbr 500 ------- 0 0.0 2.0 23 23
r 0.704 1 2 cbr 500 ------- 0 0.0 2.0 21 21
+ 0.705 0 1 cbr 500 ------- 0 0.0 2.0 41 41
- 0.708 0 1 cbr 500 ------- 0 0.0 2.0 26 26
r 0.71 0 1 cbr 500 ------- 0 0.0 2.0 24 24
+ 0.71 1 2 cbr 500 ------- 0 0.0 2.0 24 24
- 0.71 1 2 cbr 500 ------- 0 0.0 2.0 24 24
+ 0.71 0 1 cbr 500 ------- 0 0.0 2.0 42 42
r 0.712 1 2 cbr 500 ------- 0 0.0 2.0 22 22
+ 0.715 0 1 cbr 500 ------- 0 0.0 2.0 43 43
- 0.716 0 1 cbr 500 ------- 0 0.0 2.0 27 27
r 0.718 0 1 cbr 500 ------- 0 0.0 2.0 25 25
+ 0.718 1 2 cbr 500 ------- 0 0.0 2.0 25 25
- 0.718 1 2 cbr 500 ------- 0 0.0 2.0 25 25
r 0.72 1 2 cbr 500 ------- 0 0.0 2.0 23 23
+ 0.72 0 1 cbr 500 ------- 0 0.0 2.0 44 44
- 0.724 0 1 cbr 500 ------- 0 0.0 2.0 28 28
+ 0.725 0 1 cbr 500 ------- 0 0.0 2.0 45 45
r 0.726 0 1 cbr 500 ------- 0 0.0 2.0 26 26
+ 0.726 1 2 cbr 500 ------- 0 0.0 2.0 26 26
- 0.726 1 2 cbr 500 ------- 0 0.0 2.0 26 26
r 0.728 1 2 cbr 500 ------- 0 0.0 2.0 24 24
+ 0.73 0 1 cbr 500 ------- 0 0.0 2.0 46 46
- 0.732 0 1 cbr 500 ------- 0 0.0 2.0 29 29
r 0.734 0 1 cbr 500 ------- 0 0.0 2.0 27 27
+ 0.734 1 2 cbr 500 ------- 0 0.0 2.0 27 27
- 0.734 1 2 cbr 500 ------- 0 0.0 2.0 27 27
+ 0.735 0 1 cbr 500 ------- 0 0.0 2.0 47 47
r 0.736 1 2 cbr 500 ------- 0 0.0 2.0 25 25
- 0.74 0 1 cbr 500 ------- 0 0.0 2.0 30 30
+ 0.74 0 1 cbr 500 ------- 0 0.0 2.0 48 48
r 0.742 0 1 cbr 500 ------- 0 0.0 2.0 28 28
+ 0.742 1 2 cbr 500 ------- 0 0.0 2.0 28 28
- 0.742 1 2 cbr 500 ------- 0 0.0 2.0 28 28
r 0.744 1 2 cbr 500 ------- 0 0.0 2.0 26 26
+ 0.745 0 1 cbr 500 ------- 0 0.0 2.0 49 49
- 0.748 0 1 cbr 500 ------- 0 0.0 2.0 31 31
r 0.75 0 1 cbr 500 ------- 0 0.0 2.0 29 29
+ 0.75 1 2 cbr 500 ------- 0 0.0 2.0 29 29
- 0.75 1 2 cbr 500 ------- 0 0.0 2.0 29 29
+ 0.75 0 1 cbr 500 ------- 0 0.0 2.0 50 50
r 0.752 1 2 cbr 500 ------- 0 0.0 2.0 27 27
+ 0.755 0 1 cbr 500 ------- 0 0.0 2.0 51 51
- 0.756 0 1 cbr 500 ------- 0 0.0 2.0 32 32
r 0.758 0 1 cbr 500 ------- 0 0.0 2.0 30 30
+ 0.758 1 2 cbr 500 ------- 0 0.0 2.0 30 30
- 0.758 1 2 cbr 500 ------- 0 0.0 2.0 30 30
r 0.76 1 2 cbr 500 ------- 0 0.0 2.0 28 28
+ 0.76 0 1 cbr 500 ------- 0 0.0 2.0 52 52
- 0.764 0 1 cbr 500 ------- 0 0.0 2.0 33 33
+ 0.765 0 1 cbr 500 ------- 0 0.0 2.0 53 53
r 0.766 0 1 cbr 500 ------- 0 0.0 2.0 31 31
+ 0.766 1 2 cbr 500 ------- 0 0.0 2.0 31 31
- 0.766 1 2 cbr 500 ------- 0 0.0 2.0 31 31
r 0.768 1 2 cbr 500 ------- 0 0.0 2.0 29 29
+ 0.77 0 1 cbr 500 ------- 0 0.0 2.0 54 54
- 0.772 0 1 cbr 500 ------- 0 0.0 2.0 34 34
r 0.774 0 1 cbr 500 ------- 0 0.0 2.0 32 32
+ 0.774 1 2 cbr 500 ------- 0 0.0 2.0 32 32
- 0.774 1 2 cbr 500 ------- 0 0.0 2.0 32 32
+ 0.775 0 1 cbr 500 ------- 0 0.0 2.0 55 55
r 0.776 1 2 cbr 500 ------- 0 0.0 2.0 30 30
- 0.78 0 1 cbr 500 ------- 0 0.0 2.0 35 35
+ 0.78 0 1 cbr 500 ------- 0 0.0 2.0 56 56
r 0.782 0 1 cbr 500 ------- 0 0.0 2.0 33 33
+ 0.782 1 2 cbr 500 ------- 0 0.0 2.0 33 33
- 0.782 1 2 cbr 500 ------- 0 0.0 2.0 33 33
r 0.784 1 2 cbr 500 ------- 0 0.0 2.0 31 31
+ 0.785 0 1 cbr 500 ------- 0 0.0 2.0 57 57
- 0.788 0 1 cbr 500 ------- 0 0.0 2.0 36 36
r 0.79 0 1 cbr 500 ------- 0 0.0 2.0 34 34
+ 0.79 1 2 cbr 500 ------- 0 0.0 2.0 34 34
- 0.79 1 2 cbr 500 ------- 0 0.0 2.0 34 34
+ 0.79 0 1 cbr 500 ------- 0 0.0 2.0 58 58
r 0.792 1 2 cbr 500 ------- 0 0.0 2.0 32 32
+ 0.795 0 1 cbr 500 ------- 0 0.0 2.0 59 59
- 0.796 0 1 cbr 500 ------- 0 0.0 2.0 37 37
r 0.798 0 1 cbr 500 ------- 0 0.0 2.0 35 35
+ 0.798 1 2 cbr 500 ------- 0 0.0 2.0 35 35
- 0.798 1 2 cbr 500 ------- 0 0.0 2.0 35 35
r 0.8 1 2 cbr 500 ------- 0 0.0 2.0 33 33
+ 0.8 0 1 cbr 500 ------- 0 0.0 2.0 60 60
- 0.804 0 1 cbr 500 ------- 0 0.0 2.0 38 38
+ 0.805 0 1 cbr 500 ------- 0 0.0 2.0 61 61
r 0.806 0 1 cbr 500 ------- 0 0.0 2.0 36 36
+ 0.806 1 2 cbr 500 ------- 0 0.0 2.0 36 36
- 0.806 1 2 cbr 500 ------- 0 0.0 2.0 36 36
r 0.808 1 2 cbr 500 ------- 0 0.0 2.0 34 34
+ 0.81 0 1 cbr 500 ------- 0 0.0 2.0 62 62
- 0.812 0 1 cbr 500 ------- 0 0.0 2.0 39 39
r 0.814 0 1 cbr 500 ------- 0 0.0 2.0 37 37
+ 0.814 1 2 cbr 500 ------- 0 0.0 2.0 37 37
- 0.814 1 2 cbr 500 ------- 0 0.0 2.0 37 37
+ 0.815 0 1 cbr 500 ------- 0 0.0 2.0 63 63
r 0.816 1 2 cbr 500 ------- 0 0.0 2.0 35 35
- 0.82 0 1 cbr 500 ------- 0 0.0 2.0 40 40
+ 0.82 0 1 cbr 500 ------- 0 0.0 2.0 64 64
r 0.822 0 1 cbr 500 ------- 0 0.0 2.0 38 38
+ 0.822 1 2 cbr 500 ------- 0 0.0 2.0 38 38
- 0.822 1 2 cbr 500 ------- 0 0.0 2.0 38 38
r 0.824 1 2 cbr 500 ------- 0 0.0 2.0 36 36
+ 0.825 0 1 cbr 500 ------- 0 0.0 2.0 65 65
- 0.828 0 1 cbr 500 ------- 0 0.0 2.0 41 41
r 0.83 0 1 cbr 500 ------- 0 0.0 2.0 39 39
+ 0.83 1 2 cbr 500 ------- 0 0.0 2.0 39 39
- 0.83 1 2 cbr 500 ------- 0 0.0 2.0 39 39
+ 0.83 0 1 cbr 500 ------- 0 0.0 2.0 66 66
r 0.832 1 2 cbr 500 ------- 0 0.0 2.0 37 37
+ 0.835 0 1 cbr 500 ------- 0 0.0 2.0 67 67
- 0.836 0 1 cbr 500 ------- 0 0.0 2.0 42 42
r 0.838 0 1 cbr 500 ------- 0 0.0 2.0 40 40
+ 0.838 1 2 cbr 500 ------- 0 0.0 2.0 40 40
- 0.838 1 2 cbr 500 ------- 0 0.0 2.0 40 40
r 0.84 1 2 cbr 500 ------- 0 0.0 2.0 38 38
+ 0.84 0 1 cbr 500 ------- 0 0.0 2.0 68 68
- 0.844 0 1 cbr 500 ------- 0 0.0 2.0 43 43
+ 0.845 0 1 cbr 500 ------- 0 0.0 2.0 69 69
r 0.846 0 1 cbr 500 ------- 0 0.0 2.0 41 41
+ 0.846 1 2 cbr 500 ------- 0 0.0 2.0 41 41
- 0.846 1 2 cbr 500 ------- 0 0.0 2.0 41 41
r 0.848 1 2 cbr 500 ------- 0 0.0 2.0 39 39
+ 0.85 0 1 cbr 500 ------- 0 0.0 2.0 70 70
- 0.852 0 1 cbr 500 ------- 0 0.0 2.0 44 44
r 0.854 0 1 cbr 500 ------- 0 0.0 2.0 42 42
+ 0.854 1 2 cbr 500 ------- 0 0.0 2.0 42 42
- 0.854 1 2 cbr 500 ------- 0 0.0 2.0 42 42
+ 0.855 0 1 cbr 500 ------- 0 0.0 2.0 71 71
r 0.856 1 2 cbr 500 ------- 0 0.0 2.0 40 40
- 0.86 0 1 cbr 500 ------- 0 0.0 2.0 45 45
+ 0.86 0 1 cbr 500 ------- 0 0.0 2.0 72 72
r 0.862 0 1 cbr 500 ------- 0 0.0 2.0 43 43
+ 0.862 1 2 cbr 500 ------- 0 0.0 2.0 43 43
- 0.862 1 2 cbr 500 ------- 0 0.0 2.0 43 43
r 0.864 1 2 cbr 500 ------- 0 0.0 2.0 41 41
+ 0.865 0 1 cbr 500 ------- 0 0.0 2.0 73 73
- 0.868 0 1 cbr 500 ------- 0 0.0 2.0 46 46
r 0.87 0 1 cbr 500 ------- 0 0.0 2.0 44 44
+ 0.87 1 2 cbr 500 ------- 0 0.0 2.0 44 44
- 0.87 1 2 cbr 500 ------- 0 0.0 2.0 44 44
+ 0.87 0 1 cbr 500 ------- 0 0.0 2.0 74 74
r 0.872 1 2 cbr 500 ------- 0 0.0 2.0 42 42
+ 0.875 0 1 cbr 500 ------- 0 0.0 2.0 75 75
- 0.876 0 1 cbr 500 ------- 0 0.0 2.0 47 47
r 0.878 0 1 cbr 500 ------- 0 0.0 2.0 45 45
+ 0.878 1 2 cbr 500 ------- 0 0.0 2.0 45 45
- 0.878 1 2 cbr 500 ------- 0 0.0 2.0 45 45
r 0.88 1 2 cbr 500 ------- 0 0.0 2.0 43 43
+ 0.88 0 1 cbr 500 ------- 0 0.0 2.0 76 76
- 0.884 0 1 cbr 500 ------- 0 0.0 2.0 48 48
+ 0.885 0 1 cbr 500 ------- 0 0.0 2.0 77 77
r 0.886 0 1 cbr 500 ------- 0 0.0 2.0 46 46
+ 0.886 1 2 cbr 500 ------- 0 0.0 2.0 46 46
- 0.886 1 2 cbr 500 ------- 0 0.0 2.0 46 46
r 0.888 1 2 cbr 500 ------- 0 0.0 2.0 44 44
+ 0.89 0 1 cbr 500 ------- 0 0.0 2.0 78 78
- 0.892 0 1 cbr 500 ------- 0 0.0 2.0 49 49
r 0.894 0 1 cbr 500 ------- 0 0.0 2.0 47 47
+ 0.894 1 2 cbr 500 ------- 0 0.0 2.0 47 47
- 0.894 1 2 cbr 500 ------- 0 0.0 2.0 47 47
+ 0.895 0 1 cbr 500 ------- 0 0.0 2.0 79 79
r 0.896 1 2 cbr 500 ------- 0 0.0 2.0 45 45
- 0.9 0 1 cbr 500 ------- 0 0.0 2.0 50 50
+ 0.9 0 1 cbr 500 ------- 0 0.0 2.0 80 80
r 0.902 0 1 cbr 500 ------- 0 0.0 2.0 48 48
+ 0.902 1 2 cbr 500 ------- 0 0.0 2.0 48 48
- 0.902 1 2 cbr 500 ------- 0 0.0 2.0 48 48
r 0.904 1 2 cbr 500 ------- 0 0.0 2.0 46 46
+ 0.905 0 1 cbr 500 ------- 0 0.0 2.0 81 81
- 0.908 0 1 cbr 500 ------- 0 0.0 2.0 51 51
r 0.91 0 1 cbr 500 ------- 0 0.0 2.0 49 49
+ 0.91 1 2 cbr 500 ------- 0 0.0 2.0 49 49
- 0.91 1 2 cbr 500 ------- 0 0.0 2.0 49 49
+ 0.91 0 1 cbr 500 ------- 0 0.0 2.0 82 82
r 0.912 1 2 cbr 500 ------- 0 0.0 2.0 47 47
+ 0.915 0 1 cbr 500 ------- 0 0.0 2.0 83 83
- 0.916 0 1 cbr 500 ------- 0 0.0 2.0 52 52
r 0.918 0 1 cbr 500 ------- 0 0.0 2.0 50 50
+ 0.918 1 2 cbr 500 ------- 0 0.0 2.0 50 50
- 0.918 1 2 cbr 500 ------- 0 0.0 2.0 50 50
r 0.92 1 2 cbr 500 ------- 0 0.0 2.0 48 48
+ 0.92 0 1 cbr 500 ------- 0 0.0 2.0 84 84
- 0.924 0 1 cbr 500 ------- 0 0.0 2.0 53 53
+ 0.925 0 1 cbr 500 ------- 0 0.0 2.0 85 85
r 0.926 0 1 cbr 500 ------- 0 0.0 2.0 51 51
+ 0.926 1 2 cbr 500 ------- 0 0.0 2.0 51 51
- 0.926 1 2 cbr 500 ------- 0 0.0 2.0 51 51
r 0.928 1 2 cbr 500 ------- 0 0.0 2.0 49 49
+ 0.93 0 1 cbr 500 ------- 0 0.0 2.0 86 86
- 0.932 0 1 cbr 500 ------- 0 0.0 2.0 54 54
r 0.934 0 1 cbr 500 ------- 0 0.0 2.0 52 52
+ 0.934 1 2 cbr 500 ------- 0 0.0 2.0 52 52
- 0.934 1 2 cbr 500 ------- 0 0.0 2.0 52 52
+ 0.935 0 1 cbr 500 ------- 0 0.0 2.0 87 87
r 0.936 1 2 cbr 500 ------- 0 0.0 2.0 50 50
- 0.94 0 1 cbr 500 ------- 0 0.0 2.0 55 55
+ 0.94 0 1 cbr 500 ------- 0 0.0 2.0 88 88
r 0.942 0 1 cbr 500 ------- 0 0.0 2.0 53 53
+ 0.942 1 2 cbr 500 ------- 0 0.0 2.0 53 53
- 0.942 1 2 cbr 500 ------- 0 0.0 2.0 53 53
r 0.944 1 2 cbr 500 ------- 0 0.0 2.0 51 51
+ 0.945 0 1 cbr 500 ------- 0 0.0 2.0 89 89
- 0.948 0 1 cbr 500 ------- 0 0.0 2.0 56 56
r 0.95 0 1 cbr 500 ------- 0 0.0 2.0 54 54
+ 0.95 1 2 cbr 500 ------- 0 0.0 2.0 54 54
- 0.95 1 2 cbr 500 ------- 0 0.0 2.0 54 54
+ 0.95 0 1 cbr 500 ------- 0 0.0 2.0 90 90
r 0.952 1 2 cbr 500 ------- 0 0.0 2.0 52 52
+ 0.955 0 1 cbr 500 ------- 0 0.0 2.0 91 91
- 0.956 0 1 cbr 500 ------- 0 0.0 2.0 57 57
r 0.958 0 1 cbr 500 ------- 0 0.0 2.0 55 55
+ 0.958 1 2 cbr 500 ------- 0 0.0 2.0 55 55
- 0.958 1 2 cbr 500 ------- 0 0.0 2.0 55 55
r 0.96 1 2 cbr 500 ------- 0 0.0 2.0 53 53
+ 0.96 0 1 cbr 500 ------- 0 0.0 2.0 92 92
- 0.964 0 1 cbr 500 ------- 0 0.0 2.0 58 58
+ 0.965 0 1 cbr 500 ------- 0 0.0 2.0 93 93
r 0.966 0 1 cbr 500 ------- 0 0.0 2.0 56 56
+ 0.966 1 2 cbr 500 ------- 0 0.0 2.0 56 56
- 0.966 1 2 cbr 500 ------- 0 0.0 2.0 56 56
r 0.968 1 2 cbr 500 ------- 0 0.0 2.0 54 54
+ 0.97 0 1 cbr 500 ------- 0 0.0 2.0 94 94
- 0.972 0 1 cbr 500 ------- 0 0.0 2.0 59 59
r 0.974 0 1 cbr 500 ------- 0 0.0 2.0 57 57
+ 0.974 1 2 cbr 500 ------- 0 0.0 2.0 57 57
- 0.974 1 2 cbr 500 ------- 0 0.0 2.0 57 57
+ 0.975 0 1 cbr 500 ------- 0 0.0 2.0 95 95
r 0.976 1 2 cbr 500 ------- 0 0.0 2.0 55 55
- 0.98 0 1 cbr 500 ------- 0 0.0 2.0 60 60
+ 0.98 0 1 cbr 500 ------- 0 0.0 2.0 96 96
r 0.982 0 1 cbr 500 ------- 0 0.0 2.0 58 58
+ 0.982 1 2 cbr 500 ------- 0 0.0 2.0 58 58
- 0.982 1 2 cbr 500 ------- 0 0.0 2.0 58 58
r 0.984 1 2 cbr 500 ------- 0 0.0 2.0 56 56
+ 0.985 0 1 cbr 500 ------- 0 0.0 2.0 97 97
- 0.988 0 1 cbr 500 ------- 0 0.0 2.0 61 61
r 0.99 0 1 cbr 500 ------- 0 0.0 2.0 59 59
+ 0.99 1 2 cbr 500 ------- 0 0.0 2.0 59 59
- 0.99 1 2 cbr 500 ------- 0 0.0 2.0 59 59
+ 0.99 0 1 cbr 500 ------- 0 0.0 2.0 98 98
r 0.992 1 2 cbr 500 ------- 0 0.0 2.0 57 57
+ 0.995 0 1 cbr 500 ------- 0 0.0 2.0 99 99
- 0.996 0 1 cbr 500 ------- 0 0.0 2.0 62 62
r 0.998 0 1 cbr 500 ------- 0 0.0 2.0 60 60
+ 0.998 1 2 cbr 500 ------- 0 0.0 2.0 60 60
- 0.998 1 2 cbr 500 ------- 0 0.0 2.0 60 60
r 1 1 2 cbr 500 ------- 0 0.0 2.0 58 58
+ 1 0 1 cbr 500 ------- 0 0.0 2.0 100 100
- 1.004 0 1 cbr 500 ------- 0 0.0 2.0 63 63
+ 1.005 0 1 cbr 500 ------- 0 0.0 2.0 101 101
r 1.006 0 1 cbr 500 ------- 0 0.0 2.0 61 61
+ 1.006 1 2 cbr 500 ------- 0 0.0 2.0 61 61
- 1.006 1 2 cbr 500 ------- 0 0.0 2.0 61 61
r 1.008 1 2 cbr 500 ------- 0 0.0 2.0 59 59
+ 1.01 0 1 cbr 500 ------- 0 0.0 2.0 102 102
- 1.012 0 1 cbr 500 ------- 0 0.0 2.0 64 64
r 1.014 0 1 cbr 500 ------- 0 0.0 2.0 62 62
+ 1.014 1 2 cbr 500 ------- 0 0.0 2.0 62 62
- 1.014 1 2 cbr 500 ------- 0 0.0 2.0 62 62
+ 1.015 0 1 cbr 500 ------- 0 0.0 2.0 103 103
r 1.016 1 2 cbr 500 ------- 0 0.0 2.0 60 60
+ 1.02 0 1 cbr 500 ------- 0 0.0 2.0 104 104
- 1.02 0 1 cbr 500 ------- 0 0.0 2.0 65 65
r 1.022 0 1 cbr 500 ------- 0 0.0 2.0 63 63
+ 1.022 1 2 cbr 500 ------- 0 0.0 2.0 63 63
- 1.022 1 2 cbr 500 ------- 0 0.0 2.0 63 63
r 1.024 1 2 cbr 500 ------- 0 0.0 2.0 61 61
+ 1.025 0 1 cbr 500 ------- 0 0.0 2.0 105 105
- 1.028 0 1 cbr 500 ------- 0 0.0 2.0 66 66
+ 1.03 0 1 cbr 500 ------- 0 0.0 2.0 106 106
r 1.03 0 1 cbr 500 ------- 0 0.0 2.0 64 64
+ 1.03 1 2 cbr 500 ------- 0 0.0 2.0 64 64
- 1.03 1 2 cbr 500 ------- 0 0.0 2.0 64 64
r 1.032 1 2 cbr 500 ------- 0 0.0 2.0 62 62
+ 1.035 0 1 cbr 500 ------- 0 0.0 2.0 107 107
- 1.036 0 1 cbr 500 ------- 0 0.0 2.0 67 67
r 1.038 0 1 cbr 500 ------- 0 0.0 2.0 65 65
+ 1.038 1 2 cbr 500 ------- 0 0.0 2.0 65 65
- 1.038 1 2 cbr 500 ------- 0 0.0 2.0 65 65
+ 1.04 0 1 cbr 500 ------- 0 0.0 2.0 108 108
r 1.04 1 2 cbr 500 ------- 0 0.0 2.0 63 63
- 1.044 0 1 cbr 500 ------- 0 0.0 2.0 68 68
+ 1.045 0 1 cbr 500 ------- 0 0.0 2.0 109 109
r 1.046 0 1 cbr 500 ------- 0 0.0 2.0 66 66
+ 1.046 1 2 cbr 500 ------- 0 0.0 2.0 66 66
- 1.046 1 2 cbr 500 ------- 0 0.0 2.0 66 66
r 1.048 1 2 cbr 500 ------- 0 0.0 2.0 64 64
+ 1.05 0 1 cbr 500 ------- 0 0.0 2.0 110 110
- 1.052 0 1 cbr 500 ------- 0 0.0 2.0 69 69
r 1.054 0 1 cbr 500 ------- 0 0.0 2.0 67 67
+ 1.054 1 2 cbr 500 ------- 0 0.0 2.0 67 67
- 1.054 1 2 cbr 500 ------- 0 0.0 2.0 67 67
+ 1.055 0 1 cbr 500 ------- 0 0.0 2.0 111 111
r 1.056 1 2 cbr 500 ------- 0 0.0 2.0 65 65
+ 1.06 0 1 cbr 500 ------- 0 0.0 2.0 112 112
- 1.06 0 1 cbr 500 ------- 0 0.0 2.0 70 70
r 1.062 0 1 cbr 500 ------- 0 0.0 2.0 68 68
+ 1.062 1 2 cbr 500 ------- 0 0.0 2.0 68 68
- 1.062 1 2 cbr 500 ------- 0 0.0 2.0 68 68
r 1.064 1 2 cbr 500 ------- 0 0.0 2.0 66 66
+ 1.065 0 1 cbr 500 ------- 0 0.0 2.0 113 113
- 1.068 0 1 cbr 500 ------- 0 0.0 2.0 71 71
+ 1.07 0 1 cbr 500 ------- 0 0.0 2.0 114 114
r 1.07 0 1 cbr 500 ------- 0 0.0 2.0 69 69
+ 1.07 1 2 cbr 500 ------- 0 0.0 2.0 69 69
- 1.07 1 2 cbr 500 ------- 0 0.0 2.0 69 69
r 1.072 1 2 cbr 500 ------- 0 0.0 2.0 67 67
+ 1.075 0 1 cbr 500 ------- 0 0.0 2.0 115 115
- 1.076 0 1 cbr 500 ------- 0 0.0 2.0 72 72
r 1.078 0 1 cbr 500 ------- 0 0.0 2.0 70 70
+ 1.078 1 2 cbr 500 ------- 0 0.0 2.0 70 70
- 1.078 1 2 cbr 500 ------- 0 0.0 2.0 70 70
+ 1.08 0 1 cbr 500 ------- 0 0.0 2.0 116 116
r 1.08 1 2 cbr 500 ------- 0 0.0 2.0 68 68
- 1.084 0 1 cbr 500 ------- 0 0.0 2.0 73 73
+ 1.085 0 1 cbr 500 ------- 0 0.0 2.0 117 117
r 1.086 0 1 cbr 500 ------- 0 0.0 2.0 71 71
+ 1.086 1 2 cbr 500 ------- 0 0.0 2.0 71 71
- 1.086 1 2 cbr 500 ------- 0 0.0 2.0 71 71
r 1.088 1 2 cbr 500 ------- 0 0.0 2.0 69 69
+ 1.09 0 1 cbr 500 ------- 0 0.0 2.0 118 118
- 1.092 0 1 cbr 500 ------- 0 0.0 2.0 74 74
r 1.094 0 1 cbr 500 ------- 0 0.0 2.0 72 72
+ 1.094 1 2 cbr 500 ------- 0 0.0 2.0 72 72
- 1.094 1 2 cbr 500 ------- 0 0.0 2.0 72 72
+ 1.095 0 1 cbr 500 ------- 0 0.0 2.0 119 119
r 1.096 1 2 cbr 500 ------- 0 0.0 2.0 70 70
+ 1.1 0 1 cbr 500 ------- 0 0.0 2.0 120 120
- 1.1 0 1 cbr 500 ------- 0 0.0 2.0 75 75
r 1.102 0 1 cbr 500 ------- 0 0.0 2.0 73 73
+ 1.102 1 2 cbr 500 ------- 0 0.0 2.0 73 73
- 1.102 1 2 cbr 500 ------- 0 0.0 2.0 73 73
r 1.104 1 2 cbr 500 ------- 0 0.0 2.0 71 71
+ 1.105 0 1 cbr 500 ------- 0 0.0 2.0 121 121
- 1.108 0 1 cbr 500 ------- 0 0.0 2.0 76 76
+ 1.11 0 1 cbr 500 ------- 0 0.0 2.0 122 122
r 1.11 0 1 cbr 500 ------- 0 0.0 2.0 74 74
+ 1.11 1 2 cbr 500 ------- 0 0.0 2.0 74 74
- 1.11 1 2 cbr 500 ------- 0 0.0 2.0 74 74
r 1.112 1 2 cbr 500 ------- 0 0.0 2.0 72 72
+ 1.115 0 1 cbr 500 ------- 0 0.0 2.0 123 123
- 1.116 0 1 cbr 500 ------- 0 0.0 2.0 77 77
r 1.118 0 1 cbr 500 ------- 0 0.0 2.0 75 75
+ 1.118 1 2 cbr 500 ------- 0 0.0 2.0 75 75
- 1.118 1 2 cbr 500 ------- 0 0.0 2.0 75 75
+ 1.12 0 1 cbr 500 ------- 0 0.0 2.0 124 124
r 1.12 1 2 cbr 500 ------- 0 0.0 2.0 73 73
- 1.124 0 1 cbr 500 ------- 0 0.0 2.0 78 78
+ 1.125 0 1 cbr 500 ------- 0 0.0 2.0 125 125
r 1.126 0 1 cbr 500 ------- 0 0.0 2.0 76 76
+ 1.126 1 2 cbr 500 ------- 0 0.0 2.0 76 76
- 1.126 1 2 cbr 500 ------- 0 0.0 2.0 76 76
r 1.128 1 2 cbr 500 ------- 0 0.0 2.0 74 74
+ 1.13 0 1 cbr 500 ------- 0 0.0 2.0 126 126
- 1.132 0 1 cbr 500 ------- 0 0.0 2.0 79 79
r 1.134 0 1 cbr 500 ------- 0 0.0 2.0 77 77
+ 1.134 1 2 cbr 500 ------- 0 0.0 2.0 77 77
- 1.134 1 2 cbr 500 ------- 0 0.0 2.0 77 77
+ 1.135 0 1 cbr 500 ------- 0 0.0 2.0 127 127
r 1.136 1 2 cbr 500 ------- 0 0.0 2.0 75 75
+ 1.14 0 1 cbr 500 ------- 0 0.0 2.0 128 128
- 1.14 0 1 cbr 500 ------- 0 0.0 2.0 80 80
r 1.142 0 1 cbr 500 ------- 0 0.0 2.0 78 78
+ 1.142 1 2 cbr 500 ------- 0 0.0 2.0 78 78
- 1.142 1 2 cbr 500 ------- 0 0.0 2.0 78 78
r 1.144 1 2 cbr 500 ------- 0 0.0 2.0 76 76
+ 1.145 0 1 cbr 500 ------- 0 0.0 2.0 129 129
- 1.148 0 1 cbr 500 ------- 0 0.0 2.0 81 81
+ 1.15 0 1 cbr 500 ------- 0 0.0 2.0 130 130
r 1.15 0 1 cbr 500 ------- 0 0.0 2.0 79 79
+ 1.15 1 2 cbr 500 ------- 0 0.0 2.0 79 79
- 1.15 1 2 cbr 500 ------- 0 0.0 2.0 79 79
r 1.152 1 2 cbr 500 ------- 0 0.0 2.0 77 77
+ 1.155 0 1 cbr 500 ------- 0 0.0 2.0 131 131
d 1.155 0 1 cbr 500 ------- 0 0.0 2.0 131 131
- 1.156 0 1 cbr 500 ------- 0 0.0 2.0 82 82
r 1.158 0 1 cbr 500 ------- 0 0.0 2.0 80 80
+ 1.158 1 2 cbr 500 ------- 0 0.0 2.0 80 80
- 1.158 1 2 cbr 500 ------- 0 0.0 2.0 80 80
+ 1.16 0 1 cbr 500 ------- 0 0.0 2.0 132 132
r 1.16 1 2 cbr 500 ------- 0 0.0 2.0 78 78
- 1.164 0 1 cbr 500 ------- 0 0.0 2.0 83 83
+ 1.165 0 1 cbr 500 ------- 0 0.0 2.0 133 133
r 1.166 0 1 cbr 500 ------- 0 0.0 2.0 81 81
+ 1.166 1 2 cbr 500 ------- 0 0.0 2.0 81 81
- 1.166 1 2 cbr 500 ------- 0 0.0 2.0 81 81
r 1.168 1 2 cbr 500 ------- 0 0.0 2.0 79 79
+ 1.17 0 1 cbr 500 ------- 0 0.0 2.0 134 134
d 1.17 0 1 cbr 500 ------- 0 0.0 2.0 134 134
- 1.172 0 1 cbr 500 ------- 0 0.0 2.0 84 84
r 1.174 0 1 cbr 500 ------- 0 0.0 2.0 82 82
+ 1.174 1 2 cbr 500 ------- 0 0.0 2.0 82 82
- 1.174 1 2 cbr 500 ------- 0 0.0 2.0 82 82
+ 1.175 0 1 cbr 500 ------- 0 0.0 2.0 135 135
r 1.176 1 2 cbr 500 ------- 0 0.0 2.0 80 80
+ 1.18 0 1 cbr 500 ------- 0 0.0 2.0 136 136
d 1.18 0 1 cbr 500 ------- 0 0.0 2.0 136 136
- 1.18 0 1 cbr 500 ------- 0 0.0 2.0 85 85
r 1.182 0 1 cbr 500 ------- 0 0.0 2.0 83 83
+ 1.182 1 2 cbr 500 ------- 0 0.0 2.0 83 83
- 1.182 1 2 cbr 500 ------- 0 0.0 2.0 83 83
r 1.184 1 2 cbr 500 ------- 0 0.0 2.0 81 81
+ 1.185 0 1 cbr 500 ------- 0 0.0 2.0 137 137
- 1.188 0 1 cbr 500 ------- 0 0.0 2.0 86 86
+ 1.19 0 1 cbr 500 ------- 0 0.0 2.0 138 138
r 1.19 0 1 cbr 500 ------- 0 0.0 2.0 84 84
+ 1.19 1 2 cbr 500 ------- 0 0.0 2.0 84 84
- 1.19 1 2 cbr 500 ------- 0 0.0 2.0 84 84
r 1.192 1 2 cbr 500 ------- 0 0.0 2.0 82 82
+ 1.195 0 1 cbr 500 ------- 0 0.0 2.0 139 139
d 1.195 0 1 cbr 500 ------- 0 0.0 2.0 139 139
- 1.196 0 1 cbr 500 ------- 0 0.0 2.0 87 87
r 1.198 0 1 cbr 500 ------- 0 0.0 2.0 85 85
+ 1.198 1 2 cbr 500 ------- 0 0.0 2.0 85 85
- 1.198 1 2 cbr 500 ------- 0 0.0 2.0 85 85
+ 1.2 0 1 cbr 500 ------- 0 0.0 2.0 140 140
r 1.2 1 2 cbr 500 ------- 0 0.0 2.0 83 83
- 1.204 0 1 cbr 500 ------- 0 0.0 2.0 88 88
+ 1.205 0 1 cbr 500 ------- 0 0.0 2.0 141 141
r 1.206 0 1 cbr 500 ------- 0 0.0 2.0 86 86
+ 1.206 1 2 cbr 500 ------- 0 0.0 2.0 86 86
- 1.206 1 2 cbr 500 ------- 0 0.0 2.0 86 86
r 1.208 1 2 cbr 500 ------- 0 0.0 2.0 84 84
+ 1.21 0 1 cbr 500 ------- 0 0.0 2.0 142 142
d 1.21 0 1 cbr 500 ------- 0 0.0 2.0 142 142
- 1.212 0 1 cbr 500 ------- 0 0.0 2.0 89 89
r 1.214 0 1 cbr 500 ------- 0 0.0 2.0 87 87
+ 1.214 1 2 cbr 500 ------- 0 0.0 2.0 87 87
- 1.214 1 2 cbr 500 ------- 0 0.0 2.0 87 87
+ 1.215 0 1 cbr 500 ------- 0 0.0 2.0 143 143
r 1.216 1 2 cbr 500 ------- 0 0.0 2.0 85 85
+ 1.22 0 1 cbr 500 ------- 0 0.0 2.0 144 144
d 1.22 0 1 cbr 500 ------- 0 0.0 2.0 144 144
- 1.22 0 1 cbr 500 ------- 0 0.0 2.0 90 90
r 1.222 0 1 cbr 500 ------- 0 0.0 2.0 88 88
+ 1.222 1 2 cbr 500 ------- 0 0.0 2.0 88 88
- 1.222 1 2 cbr 500 ------- 0 0.0 2.0 88 88
r 1.224 1 2 cbr 500 ------- 0 0.0 2.0 86 86
+ 1.225 0 1 cbr 500 ------- 0 0.0 2.0 145 145
- 1.228 0 1 cbr 500 ------- 0 0.0 2.0 91 91
+ 1.23 0 1 cbr 500 ------- 0 0.0 2.0 146 146
r 1.23 0 1 cbr 500 ------- 0 0.0 2.0 89 89
+ 1.23 1 2 cbr 500 ------- 0 0.0 2.0 89 89
- 1.23 1 2 cbr 500 ------- 0 0.0 2.0 89 89
r 1.232 1 2 cbr 500 ------- 0 0.0 2.0 87 87
+ 1.235 0 1 cbr 500 ------- 0 0.0 2.0 147 147
d 1.235 0 1 cbr 500 ------- 0 0.0 2.0 147 147
- 1.236 0 1 cbr 500 ------- 0 0.0 2.0 92 92
r 1.238 0 1 cbr 500 ------- 0 0.0 2.0 90 90
+ 1.238 1 2 cbr 500 ------- 0 0.0 2.0 90 90
- 1.238 1 2 cbr 500 ------- 0 0.0 2.0 90 90
+ 1.24 0 1 cbr 500 ------- 0 0.0 2.0 148 148
r 1.24 1 2 cbr 500 ------- 0 0.0 2.0 88 88
- 1.244 0 1 cbr 500 ------- 0 0.0 2.0 93 93
+ 1.245 0 1 cbr 500 ------- 0 0.0 2.0 149 149
r 1.246 0 1 cbr 500 ------- 0 0.0 2.0 91 91
+ 1.246 1 2 cbr 500 ------- 0 0.0 2.0 91 91
- 1.246 1 2 cbr 500 ------- 0 0.0 2.0 91 91
r 1.248 1 2 cbr 500 ------- 0 0.0 2.0 89 89
+ 1.25 0 1 cbr 500 ------- 0 0.0 2.0 150 150
d 1.25 0 1 cbr 500 ------- 0 0.0 2.0 150 150
- 1.252 0 1 cbr 500 ------- 0 0.0 2.0 94 94
r 1.254 0 1 cbr 500 ------- 0 0.0 2.0 92 92
+ 1.254 1 2 cbr 500 ------- 0 0.0 2.0 92 92
- 1.254 1 2 cbr 500 ------- 0 0.0 2.0 92 92
+ 1.255 0 1 cbr 500 ------- 0 0.0 2.0 151 151
r 1.256 1 2 cbr 500 ------- 0 0.0 2.0 90 90
+ 1.26 0 1 cbr 500 ------- 0 0.0 2.0 152 152
d 1.26 0 1 cbr 500 ------- 0 0.0 2.0 152 152
- 1.26 0 1 cbr 500 ------- 0 0.0 2.0 95 95
r 1.262 0 1 cbr 500 ------- 0 0.0 2.0 93 93
+ 1.262 1 2 cbr 500 ------- 0 0.0 2.0 93 93
- 1.262 1 2 cbr 500 ------- 0 0.0 2.0 93 93
r 1.264 1 2 cbr 500 ------- 0 0.0 2.0 91 91
+ 1.265 0 1 cbr 500 ------- 0 0.0 2.0 153 153
- 1.268 0 1 cbr 500 ------- 0 0.0 2.0 96 96
+ 1.27 0 1 cbr 500 ------- 0 0.0 2.0 154 154
r 1.27 0 1 cbr 500 ------- 0 0.0 2.0 94 94
+ 1.27 1 2 cbr 500 ------- 0 0.0 2.0 94 94
- 1.27 1 2 cbr 500 ------- 0 0.0 2.0 94 94
r 1.272 1 2 cbr 500 ------- 0 0.0 2.0 92 92
+ 1.275 0 1 cbr 500 ------- 0 0.0 2.0 155 155
d 1.275 0 1 cbr 500 ------- 0 0.0 2.0 155 155
- 1.276 0 1 cbr 500 ------- 0 0.0 2.0 97 97
r 1.278 0 1 cbr 500 ------- 0 0.0 2.0 95 95
+ 1.278 1 2 cbr 500 ------- 0 0.0 2.0 95 95
- 1.278 1 2 cbr 500 ------- 0 0.0 2.0 95 95
+ 1.28 0 1 cbr 500 ------- 0 0.0 2.0 156 156
r 1.28 1 2 cbr 500 ------- 0 0.0 2.0 93 93
- 1.284 0 1 cbr 500 ------- 0 0.0 2.0 98 98
+ 1.285 0 1 cbr 500 ------- 0 0.0 2.0 157 157
r 1.286 0 1 cbr 500 ------- 0 0.0 2.0 96 96
+ 1.286 1 2 cbr 500 ------- 0 0.0 2.0 96 96
- 1.286 1 2 cbr 500 ------- 0 0.0 2.0 96 96
r 1.288 1 2 cbr 500 ------- 0 0.0 2.0 94 94
+ 1.29 0 1 cbr 500 ------- 0 0.0 2.0 158 158
d 1.29 0 1 cbr 500 ------- 0 0.0 2.0 158 158
- 1.292 0 1 cbr 500 ------- 0 0.0 2.0 99 99
r 1.294 0 1 cbr 500 ------- 0 0.0 2.0 97 97
+ 1.294 1 2 cbr 500 ------- 0 0.0 2.0 97 97
- 1.294 1 2 cbr 500 ------- 0 0.0 2.0 97 97
+ 1.295 0 1 cbr 500 ------- 0 0.0 2.0 159 159
r 1.296 1 2 cbr 500 ------- 0 0.0 2.0 95 95
+ 1.3 0 1 cbr 500 ------- 0 0.0 2.0 160 160
d 1.3 0 1 cbr 500 ------- 0 0.0 2.0 160 160
- 1.3 0 1 cbr 500 ------- 0 0.0 2.0 100 100
r 1.302 0 1 cbr 500 ------- 0 0.0 2.0 98 98
+ 1.302 1 2 cbr 500 ------- 0 0.0 2.0 98 98
- 1.302 1 2 cbr 500 ------- 0 0.0 2.0 98 98
r 1.304 1 2 cbr 500 ------- 0 0.0 2.0 96 96
+ 1.305 0 1 cbr 500 ------- 0 0.0 2.0 161 161
- 1.308 0 1 cbr 500 ------- 0 0.0 2.0 101 101
+ 1.31 0 1 cbr 500 ------- 0 0.0 2.0 162 162
r 1.31 0 1 cbr 500 ------- 0 0.0 2.0 99 99
+ 1.31 1 2 cbr 500 ------- 0 0.0 2.0 99 99
- 1.31 1 2 cbr 500 ------- 0 0.0 2.0 99 99
r 1.312 1 2 cbr 500 ------- 0 0.0 2.0 97 97
+ 1.315 0 1 cbr 500 ------- 0 0.0 2.0 163 163
d 1.315 0 1 cbr 500 ------- 0 0.0 2.0 163 163
- 1.316 0 1 cbr 500 ------- 0 0.0 2.0 102 102
r 1.318 0 1 cbr 500 ------- 0 0.0 2.0 100 100
+ 1.318 1 2 cbr 500 ------- 0 0.0 2.0 100 100
- 1.318 1 2 cbr 500 ------- 0 0.0 2.0 100 100
+ 1.32 0 1 cbr 500 ------- 0 0.0 2.0 164 164
r 1.32 1 2 cbr 500 ------- 0 0.0 2.0 98 98
- 1.324 0 1 cbr 500 ------- 0 0.0 2.0 103 103
+ 1.325 0 1 cbr 500 ------- 0 0.0 2.0 165 165