V -t * -v 1.0a5 -a 0
A -t * -n 1 -p 0 -o 0x7fffffff -c 30 -a 1
A -t * -h 1 -m 1073741823 -s 0
n -t * -a 0 -s 0 -S UP -v circle -c black -i black
n -t * -a 1 -s 1 -S UP -v circle -c black -i black
n -t * -a 2 -s 2 -S UP -v circle -c black -i black
n -t * -a 3 -s 3 -S UP -v circle -c black -i black
l -t * -s 0 -d 2 -S UP -r 1000000 -D 0.01 -c black
l -t * -s 1 -d 2 -S UP -r 1000000 -D 0.01 -c black
l -t * -s 3 -d 2 -S UP -r 1000000 -D 0.01 -c black
+ -t 0.504091586621143 -s 1 -d 2 -p tcp -e 40 -c 0 -i 0 -a 0 -x {1.0 3.1 0 ------- null}
- -t 0.504091586621143 -s 1 -d 2 -p tcp -e 40 -c 0 -i 0 -a 0 -x {1.0 3.1 0 ------- null}
h -t 0.504091586621143 -s 1 -d 2 -p tcp -e 40 -c 0 -i 0 -a 0 -x {1.0 3.1 -1 ------- null}
r -t 0.514411586621143 -s 1 -d 2 -p tcp -e 40 -c 0 -i 0 -a 0 -x {1.0 3.1 0 ------- null}
+ -t 0.514411586621143 -s 2 -d 3 -p tcp -e 40 -c 0 -i 0 -a 0 -x {1.0 3.1 0 ------- null}
- -t 0.514411586621143 -s 2 -d 3 -p tcp -e 40 -c 0 -i 0 -a 0 -x {1.0 3.1 0 ------- null}
h -t 0.514411586621143 -s 2 -d 3 -p tcp -e 40 -c 0 -i 0 -a 0 -x {1.0 3.1 -1 ------- null}
r -t 0.524731586621142 -s 2 -d 3 -p tcp -e 40 -c 0 -i 0 -a 0 -x {1.0 3.1 0 ------- null}
+ -t 0.524731586621142 -s 3 -d 2 -p ack -e 40 -c 0 -i 1 -a 0 -x {3.1 1.0 0 ------- null}
- -t 0.524731586621142 -s 3 -d 2 -p ack -e 40 -c 0 -i 1 -a 0 -x {3.1 1.0 0 ------- null}
h -t 0.524731586621142 -s 3 -d 2 -p ack -e 40 -c 0 -i 1 -a 0 -x {3.1 1.0 -1 ------- null}
r -t 0.535051586621142 -s 3 -d 2 -p ack -e 40 -c 0 -i 1 -a 0 -x {3.1 1.0 0 ------- null}
+ -t 0.535051586621142 -s 2 -d 1 -p ack -e 40 -c 0 -i 1 -a 0 -x {3.1 1.0 0 ------- null}
- -t 0.535051586621142 -s 2 -d 1 -p ack -e 40 -c 0 -i 1 -a 0 -x {3.1 1.0 0 ------- null}
h -t 0.535051586621142 -s 2 -d 1 -p ack -e 40 -c 0 -i 1 -a 0 -x {3.1 1.0 -1 ------- null}
r -t 0.545371586621142 -s 2 -d 1 -p ack -e 40 -c 0 -i 1 -a 0 -x {3.1 1.0 0 ------- null}
+ -t 0.545371586621142 -s 1 -d 2 -p tcp -e 140 -c 0 -i 2 -a 0 -x {1.0 3.1 1 ------- null}
- -t 0.545371586621142 -s 1 -d 2 -p tcp -e 140 -c 0 -i 2 -a 0 -x {1.0 3.1 1 ------- null}
h -t 0.545371586621142 -s 1 -d 2 -p tcp -e 140 -c 0 -i 2 -a 0 -x {1.0 3.1 -1 ------- null}
+ -t 0.545371586621142 -s 1 -d 2 -p tcp -e 140 -c 0 -i 3 -a 0 -x {1.0 3.1 2 ------- null}
- -t 0.546491586621142 -s 1 -d 2 -p tcp -e 140 -c 0 -i 3 -a 0 -x {1.0 3.1 2 ------- null}
h -t 0.546491586621142 -s 1 -d 2 -p tcp -e 140 -c 0 -i 3 -a 0 -x {1.0 3.1 -1 ------- null}
r -t 0.556491586621143 -s 1 -d 2 -p tcp -e 140 -c 0 -i 2 -a 0 -x {1.0 3.1 1 ------- null}
+ -t 0.556491586621143 -s 2 -d 3 -p tcp -e 140 -c 0 -i 2 -a 0 -x {1.0 3.1 1 ------- null}
- -t 0.556491586621143 -s 2 -d 3 -p tcp -e 140 -c 0 -i 2 -a 0 -x {1.0 3.1 1 ------- null}
h -t 0.556491586621143 -s 2 -d 3 -p tcp -e 140 -c 0 -i 2 -a 0 -x {1.0 3.1 -1 ------- null}
r -t 0.557611586621143 -s 1 -d 2 -p tcp -e 140 -c 0 -i 3 -a 0 -x {1.0 3.1 2 ------- null}
+ -t 0.557611586621143 -s 2 -d 3 -p tcp -e 140 -c 0 -i 3 -a 0 -x {1.0 3.1 2 ------- null}
- -t 0.557611586621143 -s 2 -d 3 -p tcp -e 140 -c 0 -i 3 -a 0 -x {1.0 3.1 2 ------- null}
h -t 0.557611586621143 -s 2 -d 3 -p tcp -e 140 -c 0 -i 3 -a 0 -x {1.0 3.1 -1 ------- null}
r -t 0.567611586621143 -s 2 -d 3 -p tcp -e 140 -c 0 -i 2 -a 0 -x {1.0 3.1 1 ------- null}
+ -t 0.567611586621143 -s 3 -d 2 -p ack -e 40 -c 0 -i 4 -a 0 -x {3.1 1.0 1 ------- null}
- -t 0.567611586621143 -s 3 -d 2 -p ack -e 40 -c 0 -i 4 -a 0 -x {3.1 1.0 1 ------- null}
h -t 0.567611586621143 -s 3 -d 2 -p ack -e 40 -c 0 -i 4 -a 0 -x {3.1 1.0 -1 ------- null}
r -t 0.568731586621143 -s 2 -d 3 -p tcp -e 140 -c 0 -i 3 -a 0 -x {1.0 3.1 2 ------- null}
+ -t 0.568731586621143 -s 3 -d 2 -p ack -e 40 -c 0 -i 5 -a 0 -x {3.1 1.0 2 ------- null}
- -t 0.568731586621143 -s 3 -d 2 -p ack -e 40 -c 0 -i 5 -a 0 -x {3.1 1.0 2 ------- null}
h -t 0.568731586621143 -s 3 -d 2 -p ack -e 40 -c 0 -i 5 -a 0 -x {3.1 1.0 -1 ------- null}
r -t 0.577931586621143 -s 3 -d 2 -p ack -e 40 -c 0 -i 4 -a 0 -x {3.1 1.0 1 ------- null}
+ -t 0.577931586621143 -s 2 -d 1 -p ack -e 40 -c 0 -i 4 -a 0 -x {3.1 1.0 1 ------- null}
- -t 0.577931586621143 -s 2 -d 1 -p ack -e 40 -c 0 -i 4 -a 0 -x {3.1 1.0 1 ------- null}
h -t 0.577931586621143 -s 2 -d 1 -p ack -e 40 -c 0 -i 4 -a 0 -x {3.1 1.0 -1 ------- null}
r -t 0.579051586621143 -s 3 -d 2 -p ack -e 40 -c 0 -i 5 -a 0 -x {3.1 1.0 2 ------- null}
+ -t 0.579051586621143 -s 2 -d 1 -p ack -e 40 -c 0 -i 5 -a 0 -x {3.1 1.0 2 ------- null}
- -t 0.579051586621143 -s 2 -d 1 -p ack -e 40 -c 0 -i 5 -a 0 -x {3.1 1.0 2 ------- null}
h -t 0.579051586621143 -s 2 -d 1 -p ack -e 40 -c 0 -i 5 -a 0 -x {3.1 1.0 -1 ------- null}
r -t 0.588251586621143 -s 2 -d 1 -p ack -e 40 -c 0 -i 4 -a 0 -x {3.1 1.0 1 ------- null}
+ -t 0.588251586621143 -s 1 -d 2 -p tcp -e 140 -c 0 -i 6 -a 0 -x {1.0 3.1 3 ------- null}
- -t 0.588251586621143 -s 1 -d 2 -p tcp -e 140 -c 0 -i 6 -a 0 -x {1.0 3.1 3 ------- null}
h -t 0.588251586621143 -s 1 -d 2 -p tcp -e 140 -c 0 -i 6 -a 0 -x {1.0 3.1 -1 ------- null}
+ -t 0.588251586621143 -s 1 -d 2 -p tcp -e 140 -c 0 -i 7 -a 0 -x {1.0 3.1 4 ------- null}
r -t 0.589371586621143 -s 2 -d 1 -p ack -e 40 -c 0 -i 5 -a 0 -x {3.1 1.0 2 ------- null}
+ -t 0.589371586621143 -s 1 -d 2 -p tcp -e 140 -c 0 -i 8 -a 0 -x {1.0 3.1 5 ------- null}
+ -t 0.589371586621143 -s 1 -d 2 -p tcp -e 140 -c 0 -i 9 -a 0 -x {1.0 3.1 6 ------- null}
- -t 0.589371586621143 -s 1 -d 2 -p tcp -e 140 -c 0 -i 7 -a 0 -x {1.0 3.1 4 ------- null}
h -t 0.589371586621143 -s 1 -d 2 -p tcp -e 140 -c 0 -i 7 -a 0 -x {1.0 3.1 -1 ------- null}
- -t 0.590491586621143 -s 1 -d 2 -p tcp -e 140 -c 0 -i 8 -a 0 -x {1.0 3.1 5 ------- null}
h -t 0.590491586621143 -s 1 -d 2 -p tcp -e 140 -c 0 -i 8 -a 0 -x {1.0 3.1 -1 ------- null}
- -t 0.591611586621143 -s 1 -d 2 -p tcp -e 140 -c 0 -i 9 -a 0 -x {1.0 3.1 6 ------- null}
h -t 0.591611586621143 -s 1 -d 2 -p tcp -e 140 -c 0 -i 9 -a 0 -x {1.0 3.1 -1 ------- null}
r -t 0.599371586621143 -s 1 -d 2 -p tcp -e 140 -c 0 -i 6 -a 0 -x {1.0 3.1 3 ------- null}
+ -t 0.599371586621143 -s 2 -d 3 -p tcp -e 140 -c 0 -i 6 -a 0 -x {1.0 3.1 3 ------- null}
- -t 0.599371586621143 -s 2 -d 3 -p tcp -e 140 -c 0 -i 6 -a 0 -x {1.0 3.1 3 ------- null}
h -t 0.599371586621143 -s 2 -d 3 -p tcp -e 140 -c 0 -i 6 -a 0 -x {1.0 3.1 -1 ------- null}
r -t 0.600491586621143 -s 1 -d 2 -p tcp -e 140 -c 0 -i 7 -a 0 -x {1.0 3.1 4 ------- null}
+ -t 0.600491586621143 -s 2 -d 3 -p tcp -e 140 -c 0 -i 7 -a 0 -x {1.0 3.1 4 ------- null}
- -t 0.600491586621143 -s 2 -d 3 -p tcp -e 140 -c 0 -i 7 -a 0 -x {1.0 3.1 4 ------- null}
h -t 0.600491586621143 -s 2 -d 3 -p tcp -e 140 -c 0 -i 7 -a 0 -x {1.0 3.1 -1 ------- null}
r -t 0.601611586621143 -s 1 -d 2 -p tcp -e 140 -c 0 -i 8 -a 0 -x {1.0 3.1 5 ------- null}
+ -t 0.601611586621143 -s 2 -d 3 -p tcp -e 140 -c 0 -i 8 -a 0 -x {1.0 3.1 5 ------- null}
- -t 0.601611586621143 -s 2 -d 3 -p tcp -e 140 -c 0 -i 8 -a 0 -x {1.0 3.1 5 ------- null}
h -t 0.601611586621143 -s 2 -d 3 -p tcp -e 140 -c 0 -i 8 -a 0 -x {1.0 3.1 -1 ------- null}
r -t 0.602731586621143 -s 1 -d 2 -p tcp -e 140 -c 0 -i 9 -a 0 -x {1.0 3.1 6 ------- null}
+ -t 0.602731586621143 -s 2 -d 3 -p tcp -e 140 -c 0 -i 9 -a 0 -x {1.0 3.1 6 ------- null}
- -t 0.602731586621143 -s 2 -d 3 -p tcp -e 140 -c 0 -i 9 -a 0 -x {1.0 3.1 6 ------- null}
h -t 0.602731586621143 -s 2 -d 3 -p tcp -e 140 -c 0 -i 9 -a 0 -x {1.0 3.1 -1 ------- null}
r -t 0.610491586621143 -s 2 -d 3 -p tcp -e 140 -c 0 -i 6 -a 0 -x {1.0 3.1 3 ------- null}
+ -t 0.610491586621143 -s 3 -d 2 -p ack -e 40 -c 0 -i 10 -a 0 -x {3.1 1.0 3 ------- null}
- -t 0.610491586621143 -s 3 -d 2 -p ack -e 40 -c 0 -i 10 -a 0 -x {3.1 1.0 3 ------- null}
h -t 0.610491586621143 -s 3 -d 2 -p ack -e 40 -c 0 -i 10 -a 0 -x {3.1 1.0 -1 ------- null}
r -t 0.611611586621143 -s 2 -d 3 -p tcp -e 140 -c 0 -i 7 -a 0 -x {1.0 3.1 4 ------- null}
+ -t 0.611611586621143 -s 3 -d 2 -p ack -e 40 -c 0 -i 11 -a 0 -x {3.1 1.0 4 ------- null}
- -t 0.611611586621143 -s 3 -d 2 -p ack -e 40 -c 0 -i 11 -a 0 -x {3.1 1.0 4 ------- null}
h -t 0.611611586621143 -s 3 -d 2 -p ack -e 40 -c 0 -i 11 -a 0 -x {3.1 1.0 -1 ------- null}
r -t 0.612731586621143 -s 2 -d 3 -p tcp -e 140 -c 0 -i 8 -a 0 -x {1.0 3.1 5 ------- null}
+ -t 0.612731586621143 -s 3 -d 2 -p ack -e 40 -c 0 -i 12 -a 0 -x {3.1 1.0 5 ------- null}
- -t 0.612731586621143 -s 3 -d 2 -p ack -e 40 -c 0 -i 12 -a 0 -x {3.1 1.0 5 ------- null}
h -t 0.612731586621143 -s 3 -d 2 -p ack -e 40 -c 0 -i 12 -a 0 -x {3.1 1.0 -1 ------- null}
r -t 0.613851586621143 -s 2 -d 3 -p tcp -e 140 -c 0 -i 9 -a 0 -x {1.0 3.1 6 ------- null}
+ -t 0.613851586621143 -s 3 -d 2 -p ack -e 40 -c 0 -i 13 -a 0 -x {3.1 1.0 6 ------- null}
- -t 0.613851586621143 -s 3 -d 2 -p ack -e 40 -c 0 -i 13 -a 0 -x {3.1 1.0 6 ------- null}
h -t 0.613851586621143 -s 3 -d 2 -p ack -e 40 -c 0 -i 13 -a 0 -x {3.1 1.0 -1 ------- null}
r -t 0.620811586621143 -s 3 -d 2 -p ack -e 40 -c 0 -i 10 -a 0 -x {3.1 1.0 3 ------- null}
+ -t 0.620811586621143 -s 2 -d 1 -p ack -e 40 -c 0 -i 10 -a 0 -x {3.1 1.0 3 ------- null}
- -t 0.620811586621143 -s 2 -d 1 -p ack -e 40 -c 0 -i 10 -a 0 -x {3.1 1.0 3 ------- null}
h -t 0.620811586621143 -s 2 -d 1 -p ack -e 40 -c 0 -i 10 -a 0 -x {3.1 1.0 -1 ------- null}
r -t 0.621931586621143 -s 3 -d 2 -p ack -e 40 -c 0 -i 11 -a 0 -x {3.1 1.0 4 ------- null}
+ -t 0.621931586621143 -s 2 -d 1 -p ack -e 40 -c 0 -i 11 -a 0 -x {3.1 1.0 4 ------- null}
- -t 0.621931586621143 -s 2 -d 1 -p ack -e 40 -c 0 -i 11 -a 0 -x {3.1 1.0 4 ------- null}
h -t 0.621931586621143 -s 2 -d 1 -p ack -e 40 -c 0 -i 11 -a 0 -x {3.1 1.0 -1 ------- null}
r -t 0.623051586621143 -s 3 -d 2 -p ack -e 40 -c 0 -i 12 -a 0 -x {3.1 1.0 5 ------- null}
+ -t 0.623051586621143 -s 2 -d 1 -p ack -e 40 -c 0 -i 12 -a 0 -x {3.1 1.0 5 ------- null}
- -t 0.623051586621143 -s 2 -d 1 -p ack -e 40 -c 0 -i 12 -a 0 -x {3.1 1.0 5 ------- null}
h -t 0.623051586621143 -s 2 -d 1 -p ack -e 40 -c 0 -i 12 -a 0 -x {3.1 1.0 -1 ------- null}
r -t 0.624171586621143 -s 3 -d 2 -p ack -e 40 -c 0 -i 13 -a 0 -x {3.1 1.0 6 ------- null}
+ -t 0.624171586621143 -s 2 -d 1 -p ack -e 40 -c 0 -i 13 -a 0 -x {3.1 1.0 6 ------- null}
- -t 0.624171586621143 -s 2 -d 1 -p ack -e 40 -c 0 -i 13 -a 0 -x {3.1 1.0 6 ------- null}
h -t 0.624171586621143 -s 2 -d 1 -p ack -e 40 -c 0 -i 13 -a 0 -x {3.1 1.0 -1 ------- null}
r -t 0.631131586621143 -s 2 -d 1 -p ack -e 40 -c 0 -i 10 -a 0 -x {3.1 1.0 3 ------- null}
+ -t 0.631131586621143 -s 1 -d 2 -p tcp -e 140 -c 0 -i 14 -a 0 -x {1.0 3.1 7 ------- null}
- -t 0.631131586621143 -s 1 -d 2 -p tcp -e 140 -c 0 -i 14 -a 0 -x {1.0 3.1 7 ------- null}
h -t 0.631131586621143 -s 1 -d 2 -p tcp -e 140 -c 0 -i 14 -a 0 -x {1.0 3.1 -1 ------- null}
+ -t 0.631131586621143 -s 1 -d 2 -p tcp -e 140 -c 0 -i 15 -a 0 -x {1.0 3.1 8 ------- null}
r -t 0.632251586621143 -s 2 -d 1 -p ack -e 40 -c 0 -i 11 -a 0 -x {3.1 1.0 4 ------- null}
+ -t 0.632251586621143 -s 1 -d 2 -p tcp -e 140 -c 0 -i 16 -a 0 -x {1.0 3.1 9 ------- null}
+ -t 0.632251586621143 -s 1 -d 2 -p tcp -e 140 -c 0 -i 17 -a 0 -x {1.0 3.1 10 ------- null}
- -t 0.632251586621143 -s 1 -d 2 -p tcp -e 140 -c 0 -i 15 -a 0 -x {1.0 3.1 8 ------- null}
h -t 0.632251586621143 -s 1 -d 2 -p tcp -e 140 -c 0 -i 15 -a 0 -x {1.0 3.1 -1 ------- null}
r -t 0.633371586621143 -s 2 -d 1 -p ack -e 40 -c 0 -i 12 -a 0 -x {3.1 1.0 5 ------- null}
+ -t 0.633371586621143 -s 1 -d 2 -p tcp -e 140 -c 0 -i 18 -a 0 -x {1.0 3.1 11 ------- null}
+ -t 0.633371586621143 -s 1 -d 2 -p tcp -e 140 -c 0 -i 19 -a 0 -x {1.0 3.1 12 ------- null}
- -t 0.633371586621143 -s 1 -d 2 -p tcp -e 140 -c 0 -i 16 -a 0 -x {1.0 3.1 9 ------- null}
h -t 0.633371586621143 -s 1 -d 2 -p tcp -e 140 -c 0 -i 16 -a 0 -x {1.0 3.1 -1 ------- null}
r -t 0.634491586621143 -s 2 -d 1 -p ack -e 40 -c 0 -i 13 -a 0 -x {3.1 1.0 6 ------- null}
+ -t 0.634491586621143 -s 1 -d 2 -p tcp -e 140 -c 0 -i 20 -a 0 -x {1.0 3.1 13 ------- null}
+ -t 0.634491586621143 -s 1 -d 2 -p tcp -e 140 -c 0 -i 21 -a 0 -x {1.0 3.1 14 ------- null}
- -t 0.634491586621143 -s 1 -d 2 -p tcp -e 140 -c 0 -i 17 -a 0 -x {1.0 3.1 10 ------- null}
h -t 0.634491586621143 -s 1 -d 2 -p tcp -e 140 -c 0 -i 17 -a 0 -x {1.0 3.1 -1 ------- null}
- -t 0.635611586621143 -s 1 -d 2 -p tcp -e 140 -c 0 -i 18 -a 0 -x {1.0 3.1 11 ------- null}
h -t 0.635611586621143 -s 1 -d 2 -p tcp -e 140 -c 0 -i 18 -a 0 -x {1.0 3.1 -1 ------- null}
- -t 0.636731586621143 -s 1 -d 2 -p tcp -e 140 -c 0 -i 19 -a 0 -x {1.0 3.1 12 ------- null}
h -t 0.636731586621143 -s 1 -d 2 -p tcp -e 140 -c 0 -i 19 -a 0 -x {1.0 3.1 -1 ------- null}
- -t 0.637851586621143 -s 1 -d 2 -p tcp -e 140 -c 0 -i 20 -a 0 -x {1.0 3.1 13 ------- null}
h -t 0.637851586621143 -s 1 -d 2 -p tcp -e 140 -c 0 -i 20 -a 0 -x {1.0 3.1 -1 ------- null}
- -t 0.638971586621143 -s 1 -d 2 -p tcp -e 140 -c 0 -i 21 -a 0 -x {1.0 3.1 14 ------- null}
h -t 0.638971586621143 -s 1 -d 2 -p tcp -e 140 -c 0 -i 21 -a 0 -x {1.0 3.1 -1 ------- null}
r -t 0.642251586621143 -s 1 -d 2 -p tcp -e 140 -c 0 -i 14 -a 0 -x {1.0 3.1 7 ------- null}
+ -t 0.642251586621143 -s 2 -d 3 -p tcp -e 140 -c 0 -i 14 -a 0 -x {1.0 3.1 7 ------- null}
- -t 0.642251586621143 -s 2 -d 3 -p tcp -e 140 -c 0 -i 14 -a 0 -x {1.0 3.1 7 ------- null}
h -t 0.642251586621143 -s 2 -d 3 -p tcp -e 140 -c 0 -i 14 -a 0 -x {1.0 3.1 -1 ------- null}
r -t 0.643371586621143 -s 1 -d 2 -p tcp -e 140 -c 0 -i 15 -a 0 -x {1.0 3.1 8 ------- null}
+ -t 0.643371586621143 -s 2 -d 3 -p tcp -e 140 -c 0 -i 15 -a 0 -x {1.0 3.1 8 ------- null}
- -t 0.643371586621143 -s 2 -d 3 -p tcp -e 140 -c 0 -i 15 -a 0 -x {1.0 3.1 8 ------- null}
h -t 0.643371586621143 -s 2 -d 3 -p tcp -e 140 -c 0 -i 15 -a 0 -x {1.0 3.1 -1 ------- null}
r -t 0.644491586621143 -s 1 -d 2 -p tcp -e 140 -c 0 -i 16 -a 0 -x {1.0 3.1 9 ------- null}
+ -t 0.644491586621143 -s 2 -d 3 -p tcp -e 140 -c 0 -i 16 -a 0 -x {1.0 3.1 9 ------- null}
- -t 0.644491586621143 -s 2 -d 3 -p tcp -e 140 -c 0 -i 16 -a 0 -x {1.0 3.1 9 ------- null}
h -t 0.644491586621143 -s 2 -d 3 -p tcp -e 140 -c 0 -i 16 -a 0 -x {1.0 3.1 -1 ------- null}
r -t 0.645611586621143 -s 1 -d 2 -p tcp -e 140 -c 0 -i 17 -a 0 -x {1.0 3.1 10 ------- null}
+ -t 0.645611586621143 -s 2 -d 3 -p tcp -e 140 -c 0 -i 17 -a 0 -x {1.0 3.1 10 ------- null}
- -t 0.645611586621143 -s 2 -d 3 -p tcp -e 140 -c 0 -i 17 -a 0 -x {1.0 3.1 10 ------- null}
h -t 0.645611586621143 -s 2 -d 3 -p tcp -e 140 -c 0 -i 17 -a 0 -x {1.0 3.1 -1 ------- null}
r -t 0.646731586621143 -s 1 -d 2 -p tcp -e 140 -c 0 -i 18 -a 0 -x {1.0 3.1 11 ------- null}
+ -t 0.646731586621143 -s 2 -d 3 -p tcp -e 140 -c 0 -i 18 -a 0 -x {1.0 3.1 11 ------- null}
- -t 0.646731586621143 -s 2 -d 3 -p tcp -e 140 -c 0 -i 18 -a 0 -x {1.0 3.1 11 ------- null}
h -t 0.646731586621143 -s 2 -d 3 -p tcp -e 140 -c 0 -i 18 -a 0 -x {1.0 3.1 -1 ------- null}
r -t 0.647851586621143 -s 1 -d 2 -p tcp -e 140 -c 0 -i 19 -a 0 -x {1.0 3.1 12 ------- null}
+ -t 0.647851586621143 -s 2 -d 3 -p tcp -e 140 -c 0 -i 19 -a 0 -x {1.0 3.1 12 ------- null}
- -t 0.647851586621143 -s 2 -d 3 -p tcp -e 140 -c 0 -i 19 -a 0 -x {1.0 3.1 12 ------- null}
h -t 0.647851586621143 -s 2 -d 3 -p tcp -e 140 -c 0 -i 19 -a 0 -x {1.0 3.1 -1 ------- null}
r -t 0.648971586621143 -s 1 -d 2 -p tcp -e 140 -c 0 -i 20 -a 0 -x {1.0 3.1 13 ------- null}
+ -t 0.648971586621143 -s 2 -d 3 -p tcp -e 140 -c 0 -i 20 -a 0 -x {1.0 3.1 13 ------- null}
- -t 0.648971586621143 -s 2 -d 3 -p tcp -e 140 -c 0 -i 20 -a 0 -x {1.0 3.1 13 ------- null}
h -t 0.648971586621143 -s 2 -d 3 -p tcp -e 140 -c 0 -i 20 -a 0 -x {1.0 3.1 -1 ------- null}
r -t 0.650091586621143 -s 1 -d 2 -p tcp -e 140 -c 0 -i 21 -a 0 -x {1.0 3.1 14 ------- null}
+ -t 0.650091586621143 -s 2 -d 3 -p tcp -e 140 -c 0 -i 21 -a 0 -x {1.0 3.1 14 ------- null}
- -t 0.650091586621143 -s 2 -d 3 -p tcp -e 140 -c 0 -i 21 -a 0 -x {1.0 3.1 14 ------- null}
h -t 0.650091586621143 -s 2 -d 3 -p tcp -e 140 -c 0 -i 21 -a 0 -x {1.0 3.1 -1 ------- null}
r -t 0.653371586621143 -s 2 -d 3 -p tcp -e 140 -c 0 -i 14 -a 0 -x {1.0 3.1 7 ------- null}
+ -t 0.653371586621143 -s 3 -d 2 -p ack -e 40 -c 0 -i 22 -a 0 -x {3.1 1.0 7 ------- null}
- -t 0.653371586621143 -s 3 -d 2 -p ack -e 40 -c 0 -i 22 -a 0 -x {3.1 1.0 7 ------- null}
h -t 0.653371586621143 -s 3 -d 2 -p ack -e 40 -c 0 -i 22 -a 0 -x {3.1 1.0 -1 ------- null}
r -t 0.654491586621143 -s 2 -d 3 -p tcp -e 140 -c 0 -i 15 -a 0 -x {1.0 3.1 8 ------- null}
+ -t 0.654491586621143 -s 3 -d 2 -p ack -e 40 -c 0 -i 23 -a 0 -x {3.1 1.0 8 ------- null}
- -t 0.654491586621143 -s 3 -d 2 -p ack -e 40 -c 0 -i 23 -a 0 -x {3.1 1.0 8 ------- null}
h -t 0.654491586621143 -s 3 -d 2 -p ack -e 40 -c 0 -i 23 -a 0 -x {3.1 1.0 -1 ------- null}
r -t 0.655611586621143 -s 2 -d 3 -p tcp -e 140 -c 0 -i 16 -a 0 -x {1.0 3.1 9 ------- null}
+ -t 0.655611586621143 -s 3 -d 2 -p ack -e 40 -c 0 -i 24 -a 0 -x {3.1 1.0 9 ------- null}
- -t 0.655611586621143 -s 3 -d 2 -p ack -e 40 -c 0 -i 24 -a 0 -x {3.1 1.0 9 ------- null}
h -t 0.655611586621143 -s 3 -d 2 -p ack -e 40 -c 0 -i 24 -a 0 -x {3.1 1.0 -1 ------- null}
r -t 0.656731586621143 -s 2 -d 3 -p tcp -e 140 -c 0 -i 17 -a 0 -x {1.0 3.1 10 ------- null}
+ -t 0.656731586621143 -s 3 -d 2 -p ack -e 40 -c 0 -i 25 -a 0 -x {3.1 1.0 10 ------- null}
- -t 0.656731586621143 -s 3 -d 2 -p ack -e 40 -c 0 -i 25 -a 0 -x {3.1 1.0 10 ------- null}
h -t 0.656731586621143 -s 3 -d 2 -p ack -e 40 -c 0 -i 25 -a 0 -x {3.1 1.0 -1 ------- null}
r -t 0.657851586621143 -s 2 -d 3 -p tcp -e 140 -c 0 -i 18 -a 0 -x {1.0 3.1 11 ------- null}
+ -t 0.657851586621143 -s 3 -d 2 -p ack -e 40 -c 0 -i 26 -a 0 -x {3.1 1.0 11 ------- null}
- -t 0.657851586621143 -s 3 -d 2 -p ack -e 40 -c 0 -i 26 -a 0 -x {3.1 1.0 11 ------- null}
h -t 0.657851586621143 -s 3 -d 2 -p ack -e 40 -c 0 -i 26 -a 0 -x {3.1 1.0 -1 ------- null}
r -t 0.658971586621143 -s 2 -d 3 -p tcp -e 140 -c 0 -i 19 -a 0 -x {1.0 3.1 12 ------- null}
+ -t 0.658971586621143 -s 3 -d 2 -p ack -e 40 -c 0 -i 27 -a 0 -x {3.1 1.0 12 ------- null}
- -t 0.658971586621143 -s 3 -d 2 -p ack -e 40 -c 0 -i 27 -a 0 -x {3.1 1.0 12 ------- null}
h -t 0.658971586621143 -s 3 -d 2 -p ack -e 40 -c 0 -i 27 -a 0 -x {3.1 1.0 -1 ------- null}
r -t 0.660091586621143 -s 2 -d 3 -p tcp -e 140 -c 0 -i 20 -a 0 -x {1.0 3.1 13 ------- null}
+ -t 0.660091586621143 -s 3 -d 2 -p ack -e 40 -c 0 -i 28 -a 0 -x {3.1 1.0 13 ------- null}
- -t 0.660091586621143 -s 3 -d 2 -p ack -e 40 -c 0 -i 28 -a 0 -x {3.1 1.0 13 ------- null}
h -t 0.660091586621143 -s 3 -d 2 -p ack -e 40 -c 0 -i 28 -a 0 -x {3.1 1.0 -1 ------- null}
r -t 0.661211586621143 -s 2 -d 3 -p tcp -e 140 -c 0 -i 21 -a 0 -x {1.0 3.1 14 ------- null}
+ -t 0.661211586621143 -s 3 -d 2 -p ack -e 40 -c 0 -i 29 -a 0 -x {3.1 1.0 14 ------- null}
- -t 0.661211586621143 -s 3 -d 2 -p ack -e 40 -c 0 -i 29 -a 0 -x {3.1 1.0 14 ------- null}
h -t 0.661211586621143 -s 3 -d 2 -p ack -e 40 -c 0 -i 29 -a 0 -x {3.1 1.0 -1 ------- null}
r -t 0.663691586621143 -s 3 -d 2 -p ack -e 40 -c 0 -i 22 -a 0 -x {3.1 1.0 7 ------- null}
+ -t 0.663691586621143 -s 2 -d 1 -p ack -e 40 -c 0 -i 22 -a 0 -x {3.1 1.0 7 ------- null}
- -t 0.663691586621143 -s 2 -d 1 -p ack -e 40 -c 0 -i 22 -a 0 -x {3.1 1.0 7 ------- null}
h -t 0.663691586621143 -s 2 -d 1 -p ack -e 40 -c 0 -i 22 -a 0 -x {3.1 1.0 -1 ------- null}
r -t 0.664811586621143 -s 3 -d 2 -p ack -e 40 -c 0 -i 23 -a 0 -x {3.1 1.0 8 ------- null}
+ -t 0.664811586621143 -s 2 -d 1 -p ack -e 40 -c 0 -i 23 -a 0 -x {3.1 1.0 8 ------- null}
- -t 0.664811586621143 -s 2 -d 1 -p ack -e 40 -c 0 -i 23 -a 0 -x {3.1 1.0 8 ------- null}
h -t 0.664811586621143 -s 2 -d 1 -p ack -e 40 -c 0 -i 23 -a 0 -x {3.1 1.0 -1 ------- null}
r -t 0.665931586621143 -s 3 -d 2 -p ack -e 40 -c 0 -i 24 -a 0 -x {3.1 1.0 9 ------- null}
+ -t 0.665931586621143 -s 2 -d 1 -p ack -e 40 -c 0 -i 24 -a 0 -x {3.1 1.0 9 ------- null}
- -t 0.665931586621143 -s 2 -d 1 -p ack -e 40 -c 0 -i 24 -a 0 -x {3.1 1.0 9 ------- null}
h -t 0.665931586621143 -s 2 -d 1 -p ack -e 40 -c 0 -i 24 -a 0 -x {3.1 1.0 -1 ------- null}
r -t 0.667051586621143 -s 3 -d 2 -p ack -e 40 -c 0 -i 25 -a 0 -x {3.1 1.0 10 ------- null}
+ -t 0.667051586621143 -s 2 -d 1 -p ack -e 40 -c 0 -i 25 -a 0 -x {3.1 1.0 10 ------- null}
- -t 0.667051586621143 -s 2 -d 1 -p ack -e 40 -c 0 -i 25 -a 0 -x {3.1 1.0 10 ------- null}
h -t 0.667051586621143 -s 2 -d 1 -p ack -e 40 -c 0 -i 25 -a 0 -x {3.1 1.0 -1 ------- null}
r -t 0.668171586621143 -s 3 -d 2 -p ack -e 40 -c 0 -i 26 -a 0 -x {3.1 1.0 11 ------- null}
+ -t 0.668171586621143 -s 2 -d 1 -p ack -e 40 -c 0 -i 26 -a 0 -x {3.1 1.0 11 ------- null}
- -t 0.668171586621143 -s 2 -d 1 -p ack -e 40 -c 0 -i 26 -a 0 -x {3.1 1.0 11 ------- null}
h -t 0.668171586621143 -s 2 -d 1 -p ack -e 40 -c 0 -i 26 -a 0 -x {3.1 1.0 -1 ------- null}
r -t 0.669291586621143 -s 3 -d 2 -p ack -e 40 -c 0 -i 27 -a 0 -x {3.1 1.0 12 ------- null}
+ -t 0.669291586621143 -s 2 -d 1 -p ack -e 40 -c 0 -i 27 -a 0 -x {3.1 1.0 12 ------- null}
- -t 0.669291586621143 -s 2 -d 1 -p ack -e 40 -c 0 -i 27 -a 0 -x {3.1 1.0 12 ------- null}
h -t 0.669291586621143 -s 2 -d 1 -p ack -e 40 -c 0 -i 27 -a 0 -x {3.1 1.0 -1 ------- null}
r -t 0.670411586621143 -s 3 -d 2 -p ack -e 40 -c 0 -i 28 -a 0 -x {3.1 1.0 13 ------- null}
+ -t 0.670411586621143 -s 2 -d 1 -p ack -e 40 -c 0 -i 28 -a 0 -x {3.1 1.0 13 ------- null}
- -t 0.670411586621143 -s 2 -d 1 -p ack -e 40 -c 0 -i 28 -a 0 -x {3.1 1.0 13 ------- null}
h -t 0.670411586621143 -s 2 -d 1 -p ack -e 40 -c 0 -i 28 -a 0 -x {3.1 1.0 -1 ------- null}
r -t 0.671531586621143 -s 3 -d 2 -p ack -e 40 -c 0 -i 29 -a 0 -x {3.1 1.0 14 ------- null}
+ -t 0.671531586621143 -s 2 -d 1 -p ack -e 40 -c 0 -i 29 -a 0 -x {3.1 1.0 14 ------- null}
- -t 0.671531586621143 -s 2 -d 1 -p ack -e 40 -c 0 -i 29 -a 0 -x {3.1 1.0 14 ------- null}
h -t 0.671531586621143 -s 2 -d 1 -p ack -e 40 -c 0 -i 29 -a 0 -x {3.1 1.0 -1 ------- null}
r -t 0.674011586621143 -s 2 -d 1 -p ack -e 40 -c 0 -i 22 -a 0 -x {3.1 1.0 7 ------- null}
+ -t 0.674011586621143 -s 1 -d 2 -p tcp -e 140 -c 0 -i 30 -a 0 -x {1.0 3.1 15 ------- null}
- -t 0.674011586621143 -s 1 -d 2 -p tcp -e 140 -c 0 -i 30 -a 0 -x {1.0 3.1 15 ------- null}
h -t 0.674011586621143 -s 1 -d 2 -p tcp -e 140 -c 0 -i 30 -a 0 -x {1.0 3.1 -1 ------- null}
+ -t 0.674011586621143 -s 1 -d 2 -p tcp -e 140 -c 0 -i 31 -a 0 -x {1.0 3.1 16 ------- null}
r -t 0.675131586621143 -s 2 -d 1 -p ack -e 40 -c 0 -i 23 -a 0 -x {3.1 1.0 8 ------- null}
+ -t 0.675131586621143 -s 1 -d 2 -p tcp -e 140 -c 0 -i 32 -a 0 -x {1.0 3.1 17 ------- null}
+ -t 0.675131586621143 -s 1 -d 2 -p tcp -e 140 -c 0 -i 33 -a 0 -x {1.0 3.1 18 ------- null}
- -t 0.675131586621143 -s 1 -d 2 -p tcp -e 140 -c 0 -i 31 -a 0 -x {1.0 3.1 16 ------- null}
h -t 0.675131586621143 -s 1 -d 2 -p tcp -e 140 -c 0 -i 31 -a 0 -x {1.0 3.1 -1 ------- null}
r -t 0.676251586621143 -s 2 -d 1 -p ack -e 40 -c 0 -i 24 -a 0 -x {3.1 1.0 9 ------- null}
+ -t 0.676251586621143 -s 1 -d 2 -p tcp -e 140 -c 0 -i 34 -a 0 -x {1.0 3.1 19 ------- null}
+ -t 0.676251586621143 -s 1 -d 2 -p tcp -e 140 -c 0 -i 35 -a 0 -x {1.0 3.1 20 ------- null}
- -t 0.676251586621143 -s 1 -d 2 -p tcp -e 140 -c 0 -i 32 -a 0 -x {1.0 3.1 17 ------- null}
h -t 0.676251586621143 -s 1 -d 2 -p tcp -e 140 -c 0 -i 32 -a 0 -x {1.0 3.1 -1 ------- null}
r -t 0.677371586621143 -s 2 -d 1 -p ack -e 40 -c 0 -i 25 -a 0 -x {3.1 1.0 10 ------- null}
+ -t 0.677371586621143 -s 1 -d 2 -p tcp -e 140 -c 0 -i 36 -a 0 -x {1.0 3.1 21 ------- null}
+ -t 0.677371586621143 -s 1 -d 2 -p tcp -e 140 -c 0 -i 37 -a 0 -x {1.0 3.1 22 ------- null}
- -t 0.677371586621143 -s 1 -d 2 -p tcp -e 140 -c 0 -i 33 -a 0 -x {1.0 3.1 18 ------- null}
h -t 0.677371586621143 -s 1 -d 2 -p tcp -e 140 -c 0 -i 33 -a 0 -x {1.0 3.1 -1 ------- null}
r -t 0.678491586621143 -s 2 -d 1 -p ack -e 40 -c 0 -i 26 -a 0 -x {3.1 1.0 11 ------- null}
+ -t 0.678491586621143 -s 1 -d 2 -p tcp -e 140 -c 0 -i 38 -a 0 -x {1.0 3.1 23 ------- null}
+ -t 0.678491586621143 -s 1 -d 2 -p tcp -e 140 -c 0 -i 39 -a 0 -x {1.0 3.1 24 ------- null}
- -t 0.678491586621143 -s 1 -d 2 -p tcp -e 140 -c 0 -i 34 -a 0 -x {1.0 3.1 19 ------- null}
h -t 0.678491586621143 -s 1 -d 2 -p tcp -e 140 -c 0 -i 34 -a 0 -x {1.0 3.1 -1 ------- null}
r -t 0.679611586621143 -s 2 -d 1 -p ack -e 40 -c 0 -i 27 -a 0 -x {3.1 1.0 12 ------- null}
+ -t 0.679611586621143 -s 1 -d 2 -p tcp -e 140 -c 0 -i 40 -a 0 -x {1.0 3.1 25 ------- null}
+ -t 0.679611586621143 -s 1 -d 2 -p tcp -e 140 -c 0 -i 41 -a 0 -x {1.0 3.1 26 ------- null}
- -t 0.679611586621143 -s 1 -d 2 -p tcp -e 140 -c 0 -i 35 -a 0 -x {1.0 3.1 20 ------- null}
h -t 0.679611586621143 -s 1 -d 2 -p tcp -e 140 -c 0 -i 35 -a 0 -x {1.0 3.1 -1 ------- null}
r -t 0.680731586621143 -s 2 -d 1 -p ack -e 40 -c 0 -i 28 -a 0 -x {3.1 1.0 13 ------- null}
+ -t 0.680731586621143 -s 1 -d 2 -p tcp -e 140 -c 0 -i 42 -a 0 -x {1.0 3.1 27 ------- null}
+ -t 0.680731586621143 -s 1 -d 2 -p tcp -e 140 -c 0 -i 43 -a 0 -x {1.0 3.1 28 ------- null}
- -t 0.680731586621143 -s 1 -d 2 -p tcp -e 140 -c 0 -i 36 -a 0 -x {1.0 3.1 21 ------- null}
h -t 0.680731586621143 -s 1 -d 2 -p tcp -e 140 -c 0 -i 36 -a 0 -x {1.0 3.1 -1 ------- null}
r -t 0.681851586621143 -s 2 -d 1 -p ack -e 40 -c 0 -i 29 -a 0 -x {3.1 1.0 14 ------- null}
+ -t 0.681851586621143 -s 1 -d 2 -p tcp -e 140 -c 0 -i 44 -a 0 -x {1.0 3.1 29 ------- null}
+ -t 0.681851586621143 -s 1 -d 2 -p tcp -e 140 -c 0 -i 45 -a 0 -x {1.0 3.1 30 ------- null}
- -t 0.681851586621143 -s 1 -d 2 -p tcp -e 140 -c 0 -i 37 -a 0 -x {1.0 3.1 22 ------- null}
h -t 0.681851586621143 -s 1 -d 2 -p tcp -e 140 -c 0 -i 37 -a 0 -x {1.0 3.1 -1 ------- null}
- -t 0.682971586621143 -s 1 -d 2 -p tcp -e 140 -c 0 -i 38 -a 0 -x {1.0 3.1 23 ------- null}
h -t 0.682971586621143 -s 1 -d 2 -p tcp -e 140 -c 0 -i 38 -a 0 -x {1.0 3.1 -1 ------- null}
- -t 0.684091586621143 -s 1 -d 2 -p tcp -e 140 -c 0 -i 39 -a 0 -x {1.0 3.1 24 ------- null}
h -t 0.684091586621143 -s 1 -d 2 -p tcp -e 140 -c 0 -i 39 -a 0 -x {1.0 3.1 -1 ------- null}
r -t 0.685131586621143 -s 1 -d 2 -p tcp -e 140 -c 0 -i 30 -a 0 -x {1.0 3.1 15 ------- null}
+ -t 0.685131586621143 -s 2 -d 3 -p tcp -e 140 -c 0 -i 30 -a 0 -x {1.0 3.1 15 ------- null}
- -t 0.685131586621143 -s 2 -d 3 -p tcp -e 140 -c 0 -i 30 -a 0 -x {1.0 3.1 15 ------- null}
h -t 0.685131586621143 -s 2 -d 3 -p tcp -e 140 -c 0 -i 30 -a 0 -x {1.0 3.1 -1 ------- null}
- -t 0.685211586621143 -s 1 -d 2 -p tcp -e 140 -c 0 -i 40 -a 0 -x {1.0 3.1 25 ------- null}
h -t 0.685211586621143 -s 1 -d 2 -p tcp -e 140 -c 0 -i 40 -a 0 -x {1.0 3.1 -1 ------- null}
r -t 0.686251586621143 -s 1 -d 2 -p tcp -e 140 -c 0 -i 31 -a 0 -x {1.0 3.1 16 ------- null}
+ -t 0.686251586621143 -s 2 -d 3 -p tcp -e 140 -c 0 -i 31 -a 0 -x {1.0 3.1 16 ------- null}
- -t 0.686251586621143 -s 2 -d 3 -p tcp -e 140 -c 0 -i 31 -a 0 -x {1.0 3.1 16 ------- null}
h -t 0.686251586621143 -s 2 -d 3 -p tcp -e 140 -c 0 -i 31 -a 0 -x {1.0 3.1 -1 ------- null}
- -t 0.686331586621143 -s 1 -d 2 -p tcp -e 140 -c 0 -i 41 -a 0 -x {1.0 3.1 26 ------- null}
h -t 0.686331586621143 -s 1 -d 2 -p tcp -e 140 -c 0 -i 41 -a 0 -x {1.0 3.1 -1 ------- null}
r -t 0.687371586621143 -s 1 -d 2 -p tcp -e 140 -c 0 -i 32 -a 0 -x {1.0 3.1 17 ------- null}
+ -t 0.687371586621143 -s 2 -d 3 -p tcp -e 140 -c 0 -i 32 -a 0 -x {1.0 3.1 17 ------- null}
- -t 0.687371586621143 -s 2 -d 3 -p tcp -e 140 -c 0 -i 32 -a 0 -x {1.0 3.1 17 ------- null}
h -t 0.687371586621143 -s 2 -d 3 -p tcp -e 140 -c 0 -i 32 -a 0 -x {1.0 3.1 -1 ------- null}
- -t 0.687451586621143 -s 1 -d 2 -p tcp -e 140 -c 0 -i 42 -a 0 -x {1.0 3.1 27 ------- null}
h -t 0.687451586621143 -s 1 -d 2 -p tcp -e 140 -c 0 -i 42 -a 0 -x {1.0 3.1 -1 ------- null}
r -t 0.688491586621143 -s 1 -d 2 -p tcp -e 140 -c 0 -i 33 -a 0 -x {1.0 3.1 18 ------- null}
+ -t 0.688491586621143 -s 2 -d 3 -p tcp -e 140 -c 0 -i 33 -a 0 -x {1.0 3.1 18 ------- null}
- -t 0.688491586621143 -s 2 -d 3 -p tcp -e 140 -c 0 -i 33 -a 0 -x {1.0 3.1 18 ------- null}
h -t 0.688491586621143 -s 2 -d 3 -p tcp -e 140 -c 0 -i 33 -a 0 -x {1.0 3.1 -1 ------- null}
- -t 0.688571586621143 -s 1 -d 2 -p tcp -e 140 -c 0 -i 43 -a 0 -x {1.0 3.1 28 ------- null}
h -t 0.688571586621143 -s 1 -d 2 -p tcp -e 140 -c 0 -i 43 -a 0 -x {1.0 3.1 -1 ------- null}
r -t 0.689611586621143 -s 1 -d 2 -p tcp -e 140 -c 0 -i 34 -a 0 -x {1.0 3.1 19 ------- null}
+ -t 0.689611586621143 -s 2 -d 3 -p tcp -e 140 -c 0 -i 34 -a 0 -x {1.0 3.1 19 ------- null}
- -t 0.689611586621143 -s 2 -d 3 -p tcp -e 140 -c 0 -i 34 -a 0 -x {1.0 3.1 19 ------- null}
h -t 0.689611586621143 -s 2 -d 3 -p tcp -e 140 -c 0 -i 34 -a 0 -x {1.0 3.1 -1 ------- null}
- -t 0.689691586621143 -s 1 -d 2 -p tcp -e 140 -c 0 -i 44 -a 0 -x {1.0 3.1 29 ------- null}
h -t 0.689691586621143 -s 1 -d 2 -p tcp -e 140 -c 0 -i 44 -a 0 -x {1.0 3.1 -1 ------- null}
r -t 0.690731586621143 -s 1 -d 2 -p tcp -e 140 -c 0 -i 35 -a 0 -x {1.0 3.1 20 ------- null}
+ -t 0.690731586621143 -s 2 -d 3 -p tcp -e 140 -c 0 -i 35 -a 0 -x {1.0 3.1 20 ------- null}
- -t 0.690731586621143 -s 2 -d 3 -p tcp -e 140 -c 0 -i 35 -a 0 -x {1.0 3.1 20 ------- null}
h -t 0.690731586621143 -s 2 -d 3 -p tcp -e 140 -c 0 -i 35 -a 0 -x {1.0 3.1 -1 ------- null}
- -t 0.690811586621143 -s 1 -d 2 -p tcp -e 140 -c 0 -i 45 -a 0 -x {1.0 3.1 30 ------- null}
h -t 0.690811586621143 -s 1 -d 2 -p tcp -e 140 -c 0 -i 45 -a 0 -x {1.0 3.1 -1 ------- null}
r -t 0.691851586621143 -s 1 -d 2 -p tcp -e 140 -c 0 -i 36 -a 0 -x {1.0 3.1 21 ------- null}
+ -t 0.691851586621143 -s 2 -d 3 -p tcp -e 140 -c 0 -i 36 -a 0 -x {1.0 3.1 21 ------- null}
- -t 0.691851586621143 -s 2 -d 3 -p tcp -e 140 -c 0 -i 36 -a 0 -x {1.0 3.1 21 ------- null}
h -t 0.691851586621143 -s 2 -d 3 -p tcp -e 140 -c 0 -i 36 -a 0 -x {1.0 3.1 -1 ------- null}
r -t 0.692971586621143 -s 1 -d 2 -p tcp -e 140 -c 0 -i 37 -a 0 -x {1.0 3.1 22 ------- null}
+ -t 0.692971586621143 -s 2 -d 3 -p tcp -e 140 -c 0 -i 37 -a 0 -x {1.0 3.1 22 ------- null}
- -t 0.692971586621143 -s 2 -d 3 -p tcp -e 140 -c 0 -i 37 -a 0 -x {1.0 3.1 22 ------- null}
h -t 0.692971586621143 -s 2 -d 3 -p tcp -e 140 -c 0 -i 37 -a 0 -x {1.0 3.1 -1 ------- null}
r -t 0.694091586621143 -s 1 -d 2 -p tcp -e 140 -c 0 -i 38 -a 0 -x {1.0 3.1 23 ------- null}
+ -t 0.694091586621143 -s 2 -d 3 -p tcp -e 140 -c 0 -i 38 -a 0 -x {1.0 3.1 23 ------- null}
- -t 0.694091586621143 -s 2 -d 3 -p tcp -e 140 -c 0 -i 38 -a 0 -x {1.0 3.1 23 ------- null}
h -t 0.694091586621143 -s 2 -d 3 -p tcp -e 140 -c 0 -i 38 -a 0 -x {1.0 3.1 -1 ------- null}