+ 0.504092 1 2 tcp 40 ------- 0 1.0 3.1 0 0
- 0.504092 1 2 tcp 40 ------- 0 1.0 3.1 0 0
r 0.514412 1 2 tcp 40 ------- 0 1.0 3.1 0 0
+ 0.514412 2 3 tcp 40 ------- 0 1.0 3.1 0 0
- 0.514412 2 3 tcp 40 ------- 0 1.0 3.1 0 0
r 0.524732 2 3 tcp 40 ------- 0 1.0 3.1 0 0
+ 0.524732 3 2 ack 40 ------- 0 3.1 1.0 0 1
- 0.524732 3 2 ack 40 ------- 0 3.1 1.0 0 1
r 0.535052 3 2 ack 40 ------- 0 3.1 1.0 0 1
+ 0.535052 2 1 ack 40 ------- 0 3.1 1.0 0 1
- 0.535052 2 1 ack 40 ------- 0 3.1 1.0 0 1
r 0.545372 2 1 ack 40 ------- 0 3.1 1.0 0 1
+ 0.545372 1 2 tcp 140 ------- 0 1.0 3.1 1 2
- 0.545372 1 2 tcp 140 ------- 0 1.0 3.1 1 2
+ 0.545372 1 2 tcp 140 ------- 0 1.0 3.1 2 3
- 0.546492 1 2 tcp 140 ------- 0 1.0 3.1 2 3
r 0.556492 1 2 tcp 140 ------- 0 1.0 3.1 1 2
+ 0.556492 2 3 tcp 140 ------- 0 1.0 3.1 1 2
- 0.556492 2 3 tcp 140 ------- 0 1.0 3.1 1 2
r 0.557612 1 2 tcp 140 ------- 0 1.0 3.1 2 3
+ 0.557612 2 3 tcp 140 ------- 0 1.0 3.1 2 3
- 0.557612 2 3 tcp 140 ------- 0 1.0 3.1 2 3
r 0.567612 2 3 tcp 140 ------- 0 1.0 3.1 1 2
+ 0.567612 3 2 ack 40 ------- 0 3.1 1.0 1 4
- 0.567612 3 2 ack 40 ------- 0 3.1 1.0 1 4
r 0.568732 2 3 tcp 140 ------- 0 1.0 3.1 2 3
+ 0.568732 3 2 ack 40 ------- 0 3.1 1.0 2 5
- 0.568732 3 2 ack 40 ------- 0 3.1 1.0 2 5
r 0.577932 3 2 ack 40 ------- 0 3.1 1.0 1 4
+ 0.577932 2 1 ack 40 ------- 0 3.1 1.0 1 4
- 0.577932 2 1 ack 40 ------- 0 3.1 1.0 1 4
r 0.579052 3 2 ack 40 ------- 0 3.1 1.0 2 5
+ 0.579052 2 1 ack 40 ------- 0 3.1 1.0 2 5
- 0.579052 2 1 ack 40 ------- 0 3.1 1.0 2 5
r 0.588252 2 1 ack 40 ------- 0 3.1 1.0 1 4
+ 0.588252 1 2 tcp 140 ------- 0 1.0 3.1 3 6
- 0.588252 1 2 tcp 140 ------- 0 1.0 3.1 3 6
+ 0.588252 1 2 tcp 140 ------- 0 1.0 3.1 4 7
r 0.589372 2 1 ack 40 ------- 0 3.1 1.0 2 5
+ 0.589372 1 2 tcp 140 ------- 0 1.0 3.1 5 8
+ 0.589372 1 2 tcp 140 ------- 0 1.0 3.1 6 9
- 0.589372 1 2 tcp 140 ------- 0 1.0 3.1 4 7
- 0.590492 1 2 tcp 140 ------- 0 1.0 3.1 5 8
- 0.591612 1 2 tcp 140 ------- 0 1.0 3.1 6 9
r 0.599372 1 2 tcp 140 ------- 0 1.0 3.1 3 6
+ 0.599372 2 3 tcp 140 ------- 0 1.0 3.1 3 6
- 0.599372 2 3 tcp 140 ------- 0 1.0 3.1 3 6
r 0.600492 1 2 tcp 140 ------- 0 1.0 3.1 4 7
+ 0.600492 2 3 tcp 140 ------- 0 1.0 3.1 4 7
- 0.600492 2 3 tcp 140 ------- 0 1.0 3.1 4 7
r 0.601612 1 2 tcp 140 ------- 0 1.0 3.1 5 8
+ 0.601612 2 3 tcp 140 ------- 0 1.0 3.1 5 8
- 0.601612 2 3 tcp 140 ------- 0 1.0 3.1 5 8
r 0.602732 1 2 tcp 140 ------- 0 1.0 3.1 6 9
+ 0.602732 2 3 tcp 140 ------- 0 1.0 3.1 6 9
- 0.602732 2 3 tcp 140 ------- 0 1.0 3.1 6 9
r 0.610492 2 3 tcp 140 ------- 0 1.0 3.1 3 6
+ 0.610492 3 2 ack 40 ------- 0 3.1 1.0 3 10
- 0.610492 3 2 ack 40 ------- 0 3.1 1.0 3 10
r 0.611612 2 3 tcp 140 ------- 0 1.0 3.1 4 7
+ 0.611612 3 2 ack 40 ------- 0 3.1 1.0 4 11
- 0.611612 3 2 ack 40 ------- 0 3.1 1.0 4 11
r 0.612732 2 3 tcp 140 ------- 0 1.0 3.1 5 8
+ 0.612732 3 2 ack 40 ------- 0 3.1 1.0 5 12
- 0.612732 3 2 ack 40 ------- 0 3.1 1.0 5 12
r 0.613852 2 3 tcp 140 ------- 0 1.0 3.1 6 9
+ 0.613852 3 2 ack 40 ------- 0 3.1 1.0 6 13
- 0.613852 3 2 ack 40 ------- 0 3.1 1.0 6 13
r 0.620812 3 2 ack 40 ------- 0 3.1 1.0 3 10
+ 0.620812 2 1 ack 40 ------- 0 3.1 1.0 3 10
- 0.620812 2 1 ack 40 ------- 0 3.1 1.0 3 10
r 0.621932 3 2 ack 40 ------- 0 3.1 1.0 4 11
+ 0.621932 2 1 ack 40 ------- 0 3.1 1.0 4 11
- 0.621932 2 1 ack 40 ------- 0 3.1 1.0 4 11
r 0.623052 3 2 ack 40 ------- 0 3.1 1.0 5 12
+ 0.623052 2 1 ack 40 ------- 0 3.1 1.0 5 12
- 0.623052 2 1 ack 40 ------- 0 3.1 1.0 5 12
r 0.624172 3 2 ack 40 ------- 0 3.1 1.0 6 13
+ 0.624172 2 1 ack 40 ------- 0 3.1 1.0 6 13
- 0.624172 2 1 ack 40 ------- 0 3.1 1.0 6 13
r 0.631132 2 1 ack 40 ------- 0 3.1 1.0 3 10
+ 0.631132 1 2 tcp 140 ------- 0 1.0 3.1 7 14
- 0.631132 1 2 tcp 140 ------- 0 1.0 3.1 7 14
+ 0.631132 1 2 tcp 140 ------- 0 1.0 3.1 8 15
r 0.632252 2 1 ack 40 ------- 0 3.1 1.0 4 11
+ 0.632252 1 2 tcp 140 ------- 0 1.0 3.1 9 16
+ 0.632252 1 2 tcp 140 ------- 0 1.0 3.1 10 17
- 0.632252 1 2 tcp 140 ------- 0 1.0 3.1 8 15
r 0.633372 2 1 ack 40 ------- 0 3.1 1.0 5 12
+ 0.633372 1 2 tcp 140 ------- 0 1.0 3.1 11 18
+ 0.633372 1 2 tcp 140 ------- 0 1.0 3.1 12 19
- 0.633372 1 2 tcp 140 ------- 0 1.0 3.1 9 16
r 0.634492 2 1 ack 40 ------- 0 3.1 1.0 6 13
+ 0.634492 1 2 tcp 140 ------- 0 1.0 3.1 13 20
+ 0.634492 1 2 tcp 140 ------- 0 1.0 3.1 14 21
- 0.634492 1 2 tcp 140 ------- 0 1.0 3.1 10 17
- 0.635612 1 2 tcp 140 ------- 0 1.0 3.1 11 18
- 0.636732 1 2 tcp 140 ------- 0 1.0 3.1 12 19
- 0.637852 1 2 tcp 140 ------- 0 1.0 3.1 13 20
- 0.638972 1 2 tcp 140 ------- 0 1.0 3.1 14 21
r 0.642252 1 2 tcp 140 ------- 0 1.0 3.1 7 14
+ 0.642252 2 3 tcp 140 ------- 0 1.0 3.1 7 14
- 0.642252 2 3 tcp 140 ------- 0 1.0 3.1 7 14
r 0.643372 1 2 tcp 140 ------- 0 1.0 3.1 8 15
+ 0.643372 2 3 tcp 140 ------- 0 1.0 3.1 8 15
- 0.643372 2 3 tcp 140 ------- 0 1.0 3.1 8 15
r 0.644492 1 2 tcp 140 ------- 0 1.0 3.1 9 16
+ 0.644492 2 3 tcp 140 ------- 0 1.0 3.1 9 16
- 0.644492 2 3 tcp 140 ------- 0 1.0 3.1 9 16
r 0.645612 1 2 tcp 140 ------- 0 1.0 3.1 10 17
+ 0.645612 2 3 tcp 140 ------- 0 1.0 3.1 10 17
- 0.645612 2 3 tcp 140 ------- 0 1.0 3.1 10 17
r 0.646732 1 2 tcp 140 ------- 0 1.0 3.1 11 18
+ 0.646732 2 3 tcp 140 ------- 0 1.0 3.1 11 18
- 0.646732 2 3 tcp 140 ------- 0 1.0 3.1 11 18
r 0.647852 1 2 tcp 140 ------- 0 1.0 3.1 12 19
+ 0.647852 2 3 tcp 140 ------- 0 1.0 3.1 12 19
- 0.647852 2 3 tcp 140 ------- 0 1.0 3.1 12 19
r 0.648972 1 2 tcp 140 ------- 0 1.0 3.1 13 20
+ 0.648972 2 3 tcp 140 ------- 0 1.0 3.1 13 20
- 0.648972 2 3 tcp 140 ------- 0 1.0 3.1 13 20
r 0.650092 1 2 tcp 140 ------- 0 1.0 3.1 14 21
+ 0.650092 2 3 tcp 140 ------- 0 1.0 3.1 14 21
- 0.650092 2 3 tcp 140 ------- 0 1.0 3.1 14 21
r 0.653372 2 3 tcp 140 ------- 0 1.0 3.1 7 14
+ 0.653372 3 2 ack 40 ------- 0 3.1 1.0 7 22
- 0.653372 3 2 ack 40 ------- 0 3.1 1.0 7 22
r 0.654492 2 3 tcp 140 ------- 0 1.0 3.1 8 15
+ 0.654492 3 2 ack 40 ------- 0 3.1 1.0 8 23
- 0.654492 3 2 ack 40 ------- 0 3.1 1.0 8 23
r 0.655612 2 3 tcp 140 ------- 0 1.0 3.1 9 16
+ 0.655612 3 2 ack 40 ------- 0 3.1 1.0 9 24
- 0.655612 3 2 ack 40 ------- 0 3.1 1.0 9 24
r 0.656732 2 3 tcp 140 ------- 0 1.0 3.1 10 17
+ 0.656732 3 2 ack 40 ------- 0 3.1 1.0 10 25
- 0.656732 3 2 ack 40 ------- 0 3.1 1.0 10 25
r 0.657852 2 3 tcp 140 ------- 0 1.0 3.1 11 18
+ 0.657852 3 2 ack 40 ------- 0 3.1 1.0 11 26
- 0.657852 3 2 ack 40 ------- 0 3.1 1.0 11 26
r 0.658972 2 3 tcp 140 ------- 0 1.0 3.1 12 19
+ 0.658972 3 2 ack 40 ------- 0 3.1 1.0 12 27
- 0.658972 3 2 ack 40 ------- 0 3.1 1.0 12 27
r 0.660092 2 3 tcp 140 ------- 0 1.0 3.1 13 20
+ 0.660092 3 2 ack 40 ------- 0 3.1 1.0 13 28
- 0.660092 3 2 ack 40 ------- 0 3.1 1.0 13 28
r 0.661212 2 3 tcp 140 ------- 0 1.0 3.1 14 21
+ 0.661212 3 2 ack 40 ------- 0 3.1 1.0 14 29
- 0.661212 3 2 ack 40 ------- 0 3.1 1.0 14 29
r 0.663692 3 2 ack 40 ------- 0 3.1 1.0 7 22
+ 0.663692 2 1 ack 40 ------- 0 3.1 1.0 7 22
- 0.663692 2 1 ack 40 ------- 0 3.1 1.0 7 22
r 0.664812 3 2 ack 40 ------- 0 3.1 1.0 8 23
+ 0.664812 2 1 ack 40 ------- 0 3.1 1.0 8 23
- 0.664812 2 1 ack 40 ------- 0 3.1 1.0 8 23
r 0.665932 3 2 ack 40 ------- 0 3.1 1.0 9 24
+ 0.665932 2 1 ack 40 ------- 0 3.1 1.0 9 24
- 0.665932 2 1 ack 40 ------- 0 3.1 1.0 9 24
r 0.667052 3 2 ack 40 ------- 0 3.1 1.0 10 25
+ 0.667052 2 1 ack 40 ------- 0 3.1 1.0 10 25
- 0.667052 2 1 ack 40 ------- 0 3.1 1.0 10 25
r 0.668172 3 2 ack 40 ------- 0 3.1 1.0 11 26
+ 0.668172 2 1 ack 40 ------- 0 3.1 1.0 11 26
- 0.668172 2 1 ack 40 ------- 0 3.1 1.0 11 26
r 0.669292 3 2 ack 40 ------- 0 3.1 1.0 12 27
+ 0.669292 2 1 ack 40 ------- 0 3.1 1.0 12 27
- 0.669292 2 1 ack 40 ------- 0 3.1 1.0 12 27
r 0.670412 3 2 ack 40 ------- 0 3.1 1.0 13 28
+ 0.670412 2 1 ack 40 ------- 0 3.1 1.0 13 28
- 0.670412 2 1 ack 40 ------- 0 3.1 1.0 13 28
r 0.671532 3 2 ack 40 ------- 0 3.1 1.0 14 29
+ 0.671532 2 1 ack 40 ------- 0 3.1 1.0 14 29
- 0.671532 2 1 ack 40 ------- 0 3.1 1.0 14 29
r 0.674012 2 1 ack 40 ------- 0 3.1 1.0 7 22
+ 0.674012 1 2 tcp 140 ------- 0 1.0 3.1 15 30
- 0.674012 1 2 tcp 140 ------- 0 1.0 3.1 15 30
+ 0.674012 1 2 tcp 140 ------- 0 1.0 3.1 16 31
r 0.675132 2 1 ack 40 ------- 0 3.1 1.0 8 23
+ 0.675132 1 2 tcp 140 ------- 0 1.0 3.1 17 32
+ 0.675132 1 2 tcp 140 ------- 0 1.0 3.1 18 33
- 0.675132 1 2 tcp 140 ------- 0 1.0 3.1 16 31
r 0.676252 2 1 ack 40 ------- 0 3.1 1.0 9 24
+ 0.676252 1 2 tcp 140 ------- 0 1.0 3.1 19 34
+ 0.676252 1 2 tcp 140 ------- 0 1.0 3.1 20 35
- 0.676252 1 2 tcp 140 ------- 0 1.0 3.1 17 32
r 0.677372 2 1 ack 40 ------- 0 3.1 1.0 10 25
+ 0.677372 1 2 tcp 140 ------- 0 1.0 3.1 21 36
+ 0.677372 1 2 tcp 140 ------- 0 1.0 3.1 22 37
- 0.677372 1 2 tcp 140 ------- 0 1.0 3.1 18 33
r 0.678492 2 1 ack 40 ------- 0 3.1 1.0 11 26
+ 0.678492 1 2 tcp 140 ------- 0 1.0 3.1 23 38
+ 0.678492 1 2 tcp 140 ------- 0 1.0 3.1 24 39
- 0.678492 1 2 tcp 140 ------- 0 1.0 3.1 19 34
r 0.679612 2 1 ack 40 ------- 0 3.1 1.0 12 27
+ 0.679612 1 2 tcp 140 ------- 0 1.0 3.1 25 40
+ 0.679612 1 2 tcp 140 ------- 0 1.0 3.1 26 41
- 0.679612 1 2 tcp 140 ------- 0 1.0 3.1 20 35
r 0.680732 2 1 ack 40 ------- 0 3.1 1.0 13 28
+ 0.680732 1 2 tcp 140 ------- 0 1.0 3.1 27 42
+ 0.680732 1 2 tcp 140 ------- 0 1.0 3.1 28 43
- 0.680732 1 2 tcp 140 ------- 0 1.0 3.1 21 36
r 0.681852 2 1 ack 40 ------- 0 3.1 1.0 14 29
+ 0.681852 1 2 tcp 140 ------- 0 1.0 3.1 29 44
+ 0.681852 1 2 tcp 140 ------- 0 1.0 3.1 30 45
- 0.681852 1 2 tcp 140 ------- 0 1.0 3.1 22 37
- 0.682972 1 2 tcp 140 ------- 0 1.0 3.1 23 38
- 0.684092 1 2 tcp 140 ------- 0 1.0 3.1 24 39
r 0.685132 1 2 tcp 140 ------- 0 1.0 3.1 15 30
+ 0.685132 2 3 tcp 140 ------- 0 1.0 3.1 15 30
- 0.685132 2 3 tcp 140 ------- 0 1.0 3.1 15 30
- 0.685212 1 2 tcp 140 ------- 0 1.0 3.1 25 40
r 0.686252 1 2 tcp 140 ------- 0 1.0 3.1 16 31
+ 0.686252 2 3 tcp 140 ------- 0 1.0 3.1 16 31
- 0.686252 2 3 tcp 140 ------- 0 1.0 3.1 16 31
- 0.686332 1 2 tcp 140 ------- 0 1.0 3.1 26 41
r 0.687372 1 2 tcp 140 ------- 0 1.0 3.1 17 32
+ 0.687372 2 3 tcp 140 ------- 0 1.0 3.1 17 32
- 0.687372 2 3 tcp 140 ------- 0 1.0 3.1 17 32
- 0.687452 1 2 tcp 140 ------- 0 1.0 3.1 27 42
r 0.688492 1 2 tcp 140 ------- 0 1.0 3.1 18 33
+ 0.688492 2 3 tcp 140 ------- 0 1.0 3.1 18 33
- 0.688492 2 3 tcp 140 ------- 0 1.0 3.1 18 33
- 0.688572 1 2 tcp 140 ------- 0 1.0 3.1 28 43
r 0.689612 1 2 tcp 140 ------- 0 1.0 3.1 19 34
+ 0.689612 2 3 tcp 140 ------- 0 1.0 3.1 19 34
- 0.689612 2 3 tcp 140 ------- 0 1.0 3.1 19 34
- 0.689692 1 2 tcp 140 ------- 0 1.0 3.1 29 44
r 0.690732 1 2 tcp 140 ------- 0 1.0 3.1 20 35
+ 0.690732 2 3 tcp 140 ------- 0 1.0 3.1 20 35
- 0.690732 2 3 tcp 140 ------- 0 1.0 3.1 20 35
- 0.690812 1 2 tcp 140 ------- 0 1.0 3.1 30 45
r 0.691852 1 2 tcp 140 ------- 0 1.0 3.1 21 36
+ 0.691852 2 3 tcp 140 ------- 0 1.0 3.1 21 36
- 0.691852 2 3 tcp 140 ------- 0 1.0 3.1 21 36
r 0.692972 1 2 tcp 140 ------- 0 1.0 3.1 22 37
+ 0.692972 2 3 tcp 140 ------- 0 1.0 3.1 22 37
- 0.692972 2 3 tcp 140 ------- 0 1.0 3.1 22 37
r 0.694092 1 2 tcp 140 ------- 0 1.0 3.1 23 38
+ 0.694092 2 3 tcp 140 ------- 0 1.0 3.1 23 38
- 0.694092 2 3 tcp 140 ------- 0 1.0 3.1 23 38
r 0.695212 1 2 tcp 140 ------- 0 1.0 3.1 24 39
+ 0.695212 2 3 tcp 140 ------- 0 1.0 3.1 24 39
- 0.695212 2 3 tcp 140 ------- 0 1.0 3.1 24 39
r 0.696252 2 3 tcp 140 ------- 0 1.0 3.1 15 30
+ 0.696252 3 2 ack 40 ------- 0 3.1 1.0 15 46
- 0.696252 3 2 ack 40 ------- 0 3.1 1.0 15 46
r 0.696332 1 2 tcp 140 ------- 0 1.0 3.1 25 40
+ 0.696332 2 3 tcp 140 ------- 0 1.0 3.1 25 40
- 0.696332 2 3 tcp 140 ------- 0 1.0 3.1 25 40
r 0.697372 2 3 tcp 140 ------- 0 1.0 3.1 16 31
+ 0.697372 3 2 ack 40 ------- 0 3.1 1.0 16 47
- 0.697372 3 2 ack 40 ------- 0 3.1 1.0 16 47
r 0.697452 1 2 tcp 140 ------- 0 1.0 3.1 26 41
+ 0.697452 2 3 tcp 140 ------- 0 1.0 3.1 26 41
- 0.697452 2 3 tcp 140 ------- 0 1.0 3.1 26 41
r 0.698492 2 3 tcp 140 ------- 0 1.0 3.1 17 32
+ 0.698492 3 2 ack 40 ------- 0 3.1 1.0 17 48
- 0.698492 3 2 ack 40 ------- 0 3.1 1.0 17 48
r 0.698572 1 2 tcp 140 ------- 0 1.0 3.1 27 42
+ 0.698572 2 3 tcp 140 ------- 0 1.0 3.1 27 42
- 0.698572 2 3 tcp 140 ------- 0 1.0 3.1 27 42
r 0.699612 2 3 tcp 140 ------- 0 1.0 3.1 18 33
+ 0.699612 3 2 ack 40 ------- 0 3.1 1.0 18 49
- 0.699612 3 2 ack 40 ------- 0 3.1 1.0 18 49
r 0.699692 1 2 tcp 140 ------- 0 1.0 3.1 28 43
+ 0.699692 2 3 tcp 140 ------- 0 1.0 3.1 28 43
- 0.699692 2 3 tcp 140 ------- 0 1.0 3.1 28 43
r 0.700732 2 3 tcp 140 ------- 0 1.0 3.1 19 34
+ 0.700732 3 2 ack 40 ------- 0 3.1 1.0 19 50
- 0.700732 3 2 ack 40 ------- 0 3.1 1.0 19 50
r 0.700812 1 2 tcp 140 ------- 0 1.0 3.1 29 44
+ 0.700812 2 3 tcp 140 ------- 0 1.0 3.1 29 44
- 0.700812 2 3 tcp 140 ------- 0 1.0 3.1 29 44
r 0.701852 2 3 tcp 140 ------- 0 1.0 3.1 20 35
+ 0.701852 3 2 ack 40 ------- 0 3.1 1.0 20 51
- 0.701852 3 2 ack 40 ------- 0 3.1 1.0 20 51
r 0.701932 1 2 tcp 140 ------- 0 1.0 3.1 30 45
+ 0.701932 2 3 tcp 140 ------- 0 1.0 3.1 30 45
- 0.701932 2 3 tcp 140 ------- 0 1.0 3.1 30 45
r 0.702972 2 3 tcp 140 ------- 0 1.0 3.1 21 36
+ 0.702972 3 2 ack 40 ------- 0 3.1 1.0 21 52
- 0.702972 3 2 ack 40 ------- 0 3.1 1.0 21 52
r 0.704092 2 3 tcp 140 ------- 0 1.0 3.1 22 37
+ 0.704092 3 2 ack 40 ------- 0 3.1 1.0 22 53
- 0.704092 3 2 ack 40 ------- 0 3.1 1.0 22 53
r 0.705212 2 3 tcp 140 ------- 0 1.0 3.1 23 38
+ 0.705212 3 2 ack 40 ------- 0 3.1 1.0 23 54
- 0.705212 3 2 ack 40 ------- 0 3.1 1.0 23 54
r 0.706332 2 3 tcp 140 ------- 0 1.0 3.1 24 39
+ 0.706332 3 2 ack 40 ------- 0 3.1 1.0 24 55
- 0.706332 3 2 ack 40 ------- 0 3.1 1.0 24 55
r 0.706572 3 2 ack 40 ------- 0 3.1 1.0 15 46
+ 0.706572 2 1 ack 40 ------- 0 3.1 1.0 15 46
- 0.706572 2 1 ack 40 ------- 0 3.1 1.0 15 46
r 0.707452 2 3 tcp 140 ------- 0 1.0 3.1 25 40
+ 0.707452 3 2 ack 40 ------- 0 3.1 1.0 25 56
- 0.707452 3 2 ack 40 ------- 0 3.1 1.0 25 56
r 0.707692 3 2 ack 40 ------- 0 3.1 1.0 16 47
+ 0.707692 2 1 ack 40 ------- 0 3.1 1.0 16 47
- 0.707692 2 1 ack 40 ------- 0 3.1 1.0 16 47
r 0.708572 2 3 tcp 140 ------- 0 1.0 3.1 26 41
+ 0.708572 3 2 ack 40 ------- 0 3.1 1.0 26 57
- 0.708572 3 2 ack 40 ------- 0 3.1 1.0 26 57
r 0.708812 3 2 ack 40 ------- 0 3.1 1.0 17 48
+ 0.708812 2 1 ack 40 ------- 0 3.1 1.0 17 48
- 0.708812 2 1 ack 40 ------- 0 3.1 1.0 17 48
r 0.709692 2 3 tcp 140 ------- 0 1.0 3.1 27 42
+ 0.709692 3 2 ack 40 ------- 0 3.1 1.0 27 58
- 0.709692 3 2 ack 40 ------- 0 3.1 1.0 27 58
r 0.709932 3 2 ack 40 ------- 0 3.1 1.0 18 49
+ 0.709932 2 1 ack 40 ------- 0 3.1 1.0 18 49
- 0.709932 2 1 ack 40 ------- 0 3.1 1.0 18 49
r 0.710812 2 3 tcp 140 ------- 0 1.0 3.1 28 43
+ 0.710812 3 2 ack 40 ------- 0 3.1 1.0 28 59
- 0.710812 3 2 ack 40 ------- 0 3.1 1.0 28 59
r 0.711052 3 2 ack 40 ------- 0 3.1 1.0 19 50
+ 0.711052 2 1 ack 40 ------- 0 3.1 1.0 19 50
- 0.711052 2 1 ack 40 ------- 0 3.1 1.0 19 50
r 0.711932 2 3 tcp 140 ------- 0 1.0 3.1 29 44
+ 0.711932 3 2 ack 40 ------- 0 3.1 1.0 29 60
- 0.711932 3 2 ack 40 ------- 0 3.1 1.0 29 60
r 0.712172 3 2 ack 40 ------- 0 3.1 1.0 20 51
+ 0.712172 2 1 ack 40 ------- 0 3.1 1.0 20 51
- 0.712172 2 1 ack 40 ------- 0 3.1 1.0 20 51
r 0.713052 2 3 tcp 140 ------- 0 1.0 3.1 30 45
+ 0.713052 3 2 ack 40 ------- 0 3.1 1.0 30 61
- 0.713052 3 2 ack 40 ------- 0 3.1 1.0 30 61
r 0.713292 3 2 ack 40 ------- 0 3.1 1.0 21 52
+ 0.713292 2 1 ack 40 ------- 0 3.1 1.0 21 52
- 0.713292 2 1 ack 40 ------- 0 3.1 1.0 21 52
r 0.714412 3 2 ack 40 ------- 0 3.1 1.0 22 53
+ 0.714412 2 1 ack 40 ------- 0 3.1 1.0 22 53
- 0.714412 2 1 ack 40 ------- 0 3.1 1.0 22 53
r 0.715532 3 2 ack 40 ------- 0 3.1 1.0 23 54
+ 0.715532 2 1 ack 40 ------- 0 3.1 1.0 23 54
- 0.715532 2 1 ack 40 ------- 0 3.1 1.0 23 54
r 0.716652 3 2 ack 40 ------- 0 3.1 1.0 24 55
+ 0.716652 2 1 ack 40 ------- 0 3.1 1.0 24 55
- 0.716652 2 1 ack 40 ------- 0 3.1 1.0 24 55
r 0.716892 2 1 ack 40 ------- 0 3.1 1.0 15 46
+ 0.716892 1 2 tcp 140 ------- 0 1.0 3.1 31 62
- 0.716892 1 2 tcp 140 ------- 0 1.0 3.1 31 62
+ 0.716892 1 2 tcp 140 ------- 0 1.0 3.1 32 63
r 0.717772 3 2 ack 40 ------- 0 3.1 1.0 25 56
+ 0.717772 2 1 ack 40 ------- 0 3.1 1.0 25 56
- 0.717772 2 1 ack 40 ------- 0 3.1 1.0 25 56
r 0.718012 2 1 ack 40 ------- 0 3.1 1.0 16 47
+ 0.718012 1 2 tcp 140 ------- 0 1.0 3.1 33 64
+ 0.718012 1 2 tcp 140 ------- 0 1.0 3.1 34 65
- 0.718012 1 2 tcp 140 ------- 0 1.0 3.1 32 63
r 0.718892 3 2 ack 40 ------- 0 3.1 1.0 26 57
+ 0.718892 2 1 ack 40 ------- 0 3.1 1.0 26 57
- 0.718892 2 1 ack 40 ------- 0 3.1 1.0 26 57
r 0.719132 2 1 ack 40 ------- 0 3.1 1.0 17 48
+ 0.719132 1 2 tcp 140 ------- 0 1.0 3.1 35 66
+ 0.719132 1 2 tcp 140 ------- 0 1.0 3.1 36 67
- 0.719132 1 2 tcp 140 ------- 0 1.0 3.1 33 64
r 0.720012 3 2 ack 40 ------- 0 3.1 1.0 27 58
+ 0.720012 2 1 ack 40 ------- 0 3.1 1.0 27 58
- 0.720012 2 1 ack 40 ------- 0 3.1 1.0 27 58
r 0.720252 2 1 ack 40 ------- 0 3.1 1.0 18 49
+ 0.720252 1 2 tcp 140 ------- 0 1.0 3.1 37 68
+ 0.720252 1 2 tcp 140 ------- 0 1.0 3.1 38 69
- 0.720252 1 2 tcp 140 ------- 0 1.0 3.1 34 65
r 0.721132 3 2 ack 40 ------- 0 3.1 1.0 28 59
+ 0.721132 2 1 ack 40 ------- 0 3.1 1.0 28 59
- 0.721132 2 1 ack 40 ------- 0 3.1 1.0 28 59
r 0.721372 2 1 ack 40 ------- 0 3.1 1.0 19 50
+ 0.721372 1 2 tcp 140 ------- 0 1.0 3.1 39 70
- 0.721372 1 2 tcp 140 ------- 0 1.0 3.1 35 66
r 0.722252 3 2 ack 40 ------- 0 3.1 1.0 29 60
+ 0.722252 2 1 ack 40 ------- 0 3.1 1.0 29 60
- 0.722252 2 1 ack 40 ------- 0 3.1 1.0 29 60
r 0.722492 2 1 ack 40 ------- 0 3.1 1.0 20 51
+ 0.722492 1 2 tcp 140 ------- 0 1.0 3.1 40 71
- 0.722492 1 2 tcp 140 ------- 0 1.0 3.1 36 67
r 0.723372 3 2 ack 40 ------- 0 3.1 1.0 30 61
+ 0.723372 2 1 ack 40 ------- 0 3.1 1.0 30 61
- 0.723372 2 1 ack 40 ------- 0 3.1 1.0 30 61
r 0.723612 2 1 ack 40 ------- 0 3.1 1.0 21 52
+ 0.723612 1 2 tcp 140 ------- 0 1.0 3.1 41 72
- 0.723612 1 2 tcp 140 ------- 0 1.0 3.1 37 68
r 0.724732 2 1 ack 40 ------- 0 3.1 1.0 22 53
+ 0.724732 1 2 tcp 140 ------- 0 1.0 3.1 42 73
- 0.724732 1 2 tcp 140 ------- 0 1.0 3.1 38 69
r 0.725852 2 1 ack 40 ------- 0 3.1 1.0 23 54
+ 0.725852 1 2 tcp 140 ------- 0 1.0 3.1 43 74
- 0.725852 1 2 tcp 140 ------- 0 1.0 3.1 39 70
r 0.726972 2 1 ack 40 ------- 0 3.1 1.0 24 55
- 0.726972 1 2 tcp 140 ------- 0 1.0 3.1 40 71
r 0.728012 1 2 tcp 140 ------- 0 1.0 3.1 31 62
+ 0.728012 2 3 tcp 140 ------- 0 1.0 3.1 31 62
- 0.728012 2 3 tcp 140 ------- 0 1.0 3.1 31 62
r 0.728092 2 1 ack 40 ------- 0 3.1 1.0 25 56
- 0.728092 1 2 tcp 140 ------- 0 1.0 3.1 41 72
r 0.729132 1 2 tcp 140 ------- 0 1.0 3.1 32 63
+ 0.729132 2 3 tcp 140 ------- 0 1.0 3.1 32 63
- 0.729132 2 3 tcp 140 ------- 0 1.0 3.1 32 63
r 0.729212 2 1 ack 40 ------- 0 3.1 1.0 26 57
- 0.729212 1 2 tcp 140 ------- 0 1.0 3.1 42 73
r 0.730252 1 2 tcp 140 ------- 0 1.0 3.1 33 64
+ 0.730252 2 3 tcp 140 ------- 0 1.0 3.1 33 64
- 0.730252 2 3 tcp 140 ------- 0 1.0 3.1 33 64
r 0.730332 2 1 ack 40 ------- 0 3.1 1.0 27 58
- 0.730332 1 2 tcp 140 ------- 0 1.0 3.1 43 74
r 0.731372 1 2 tcp 140 ------- 0 1.0 3.1 34 65
+ 0.731372 2 3 tcp 140 ------- 0 1.0 3.1 34 65
- 0.731372 2 3 tcp 140 ------- 0 1.0 3.1 34 65
r 0.731452 2 1 ack 40 ------- 0 3.1 1.0 28 59
r 0.732492 1 2 tcp 140 ------- 0 1.0 3.1 35 66
+ 0.732492 2 3 tcp 140 ------- 0 1.0 3.1 35 66
- 0.732492 2 3 tcp 140 ------- 0 1.0 3.1 35 66
r 0.732572 2 1 ack 40 ------- 0 3.1 1.0 29 60
r 0.733612 1 2 tcp 140 ------- 0 1.0 3.1 36 67
+ 0.733612 2 3 tcp 140 ------- 0 1.0 3.1 36 67
- 0.733612 2 3 tcp 140 ------- 0 1.0 3.1 36 67
r 0.733692 2 1 ack 40 ------- 0 3.1 1.0 30 61
r 0.734732 1 2 tcp 140 ------- 0 1.0 3.1 37 68
+ 0.734732 2 3 tcp 140 ------- 0 1.0 3.1 37 68
- 0.734732 2 3 tcp 140 ------- 0 1.0 3.1 37 68
+ 0.735506 1 2 tcp 140 ------- 0 1.0 3.1 44 75
- 0.735506 1 2 tcp 140 ------- 0 1.0 3.1 44 75
r 0.735852 1 2 tcp 140 ------- 0 1.0 3.1 38 69
+ 0.735852 2 3 tcp 140 ------- 0 1.0 3.1 38 69
- 0.735852 2 3 tcp 140 ------- 0 1.0 3.1 38 69
r 0.736972 1 2 tcp 140 ------- 0 1.0 3.1 39 70
+ 0.736972 2 3 tcp 140 ------- 0 1.0 3.1 39 70
- 0.736972 2 3 tcp 140 ------- 0 1.0 3.1 39 70
+ 0.737519 1 2 tcp 140 ------- 0 1.0 3.1 45 76
- 0.737519 1 2 tcp 140 ------- 0 1.0 3.1 45 76
r 0.738092 1 2 tcp 140 ------- 0 1.0 3.1 40 71
+ 0.738092 2 3 tcp 140 ------- 0 1.0 3.1 40 71
- 0.738092 2 3 tcp 140 ------- 0 1.0 3.1 40 71
r 0.739132 2 3 tcp 140 ------- 0 1.0 3.1 31 62
+ 0.739132 3 2 ack 40 ------- 0 3.1 1.0 31 77
- 0.739132 3 2 ack 40 ------- 0 3.1 1.0 31 77
r 0.739212 1 2 tcp 140 ------- 0 1.0 3.1 41 72
+ 0.739212 2 3 tcp 140 ------- 0 1.0 3.1 41 72
- 0.739212 2 3 tcp 140 ------- 0 1.0 3.1 41 72
r 0.740252 2 3 tcp 140 ------- 0 1.0 3.1 32 63
+ 0.740252 3 2 ack 40 ------- 0 3.1 1.0 32 78
- 0.740252 3 2 ack 40 ------- 0 3.1 1.0 32 78
r 0.740332 1 2 tcp 140 ------- 0 1.0 3.1 42 73
+ 0.740332 2 3 tcp 140 ------- 0 1.0 3.1 42 73
- 0.740332 2 3 tcp 140 ------- 0 1.0 3.1 42 73
r 0.741372 2 3 tcp 140 ------- 0 1.0 3.1 33 64
+ 0.741372 3 2 ack 40 ------- 0 3.1 1.0 33 79
- 0.741372 3 2 ack 40 ------- 0 3.1 1.0 33 79
r 0.741452 1 2 tcp 140 ------- 0 1.0 3.1 43 74
+ 0.741452 2 3 tcp 140 ------- 0 1.0 3.1 43 74
- 0.741452 2 3 tcp 140 ------- 0 1.0 3.1 43 74
r 0.742492 2 3 tcp 140 ------- 0 1.0 3.1 34 65
+ 0.742492 3 2 ack 40 ------- 0 3.1 1.0 34 80
- 0.742492 3 2 ack 40 ------- 0 3.1 1.0 34 80
r 0.743612 2 3 tcp 140 ------- 0 1.0 3.1 35 66
+ 0.743612 3 2 ack 40 ------- 0 3.1 1.0 35 81
- 0.743612 3 2 ack 40 ------- 0 3.1 1.0 35 81
+ 0.744312 1 2 tcp 140 ------- 0 1.0 3.1 46 82
- 0.744312 1 2 tcp 140 ------- 0 1.0 3.1 46 82
r 0.744732 2 3 tcp 140 ------- 0 1.0 3.1 36 67
+ 0.744732 3 2 ack 40 ------- 0 3.1 1.0 36 83
- 0.744732 3 2 ack 40 ------- 0 3.1 1.0 36 83
r 0.745852 2 3 tcp 140 ------- 0 1.0 3.1 37 68
+ 0.745852 3 2 ack 40 ------- 0 3.1 1.0 37 84
- 0.745852 3 2 ack 40 ------- 0 3.1 1.0 37 84
+ 0.746105 1 2 tcp 140 ------- 0 1.0 3.1 47 85
- 0.746105 1 2 tcp 140 ------- 0 1.0 3.1 47 85
r 0.746626 1 2 tcp 140 ------- 0 1.0 3.1 44 75
+ 0.746626 2 3 tcp 140 ------- 0 1.0 3.1 44 75
- 0.746626 2 3 tcp 140 ------- 0 1.0 3.1 44 75
r 0.746972 2 3 tcp 140 ------- 0 1.0 3.1 38 69
+ 0.746972 3 2 ack 40 ------- 0 3.1 1.0 38 86
- 0.746972 3 2 ack 40 ------- 0 3.1 1.0 38 86
r 0.748092 2 3 tcp 140 ------- 0 1.0 3.1 39 70
+ 0.748092 3 2 ack 40 ------- 0 3.1 1.0 39 87
- 0.748092 3 2 ack 40 ------- 0 3.1 1.0 39 87
r 0.748639 1 2 tcp 140 ------- 0 1.0 3.1 45 76
+ 0.748639 2 3 tcp 140 ------- 0 1.0 3.1 45 76
- 0.748639 2 3 tcp 140 ------- 0 1.0 3.1 45 76
+ 0.749142 1 2 tcp 140 ------- 0 1.0 3.1 48 88
- 0.749142 1 2 tcp 140 ------- 0 1.0 3.1 48 88
r 0.749212 2 3 tcp 140 ------- 0 1.0 3.1 40 71
+ 0.749212 3 2 ack 40 ------- 0 3.1 1.0 40 89
- 0.749212 3 2 ack 40 ------- 0 3.1 1.0 40 89
r 0.749452 3 2 ack 40 ------- 0 3.1 1.0 31 77
+ 0.749452 2 1 ack 40 ------- 0 3.1 1.0 31 77
- 0.749452 2 1 ack 40 ------- 0 3.1 1.0 31 77
+ 0.7498 1 2 tcp 140 ------- 0 1.0 3.1 49 90
+ 0.75 0 2 tcp 40 ------- 0 0.0 3.0 0 91
- 0.75 0 2 tcp 40 ------- 0 0.0 3.0 0 91
- 0.750262 1 2 tcp 140 ------- 0 1.0 3.1 49 90
r 0.750332 2 3 tcp 140 ------- 0 1.0 3.1 41 72
+ 0.750332 3 2 ack 40 ------- 0 3.1 1.0 41 92
- 0.750332 3 2 ack 40 ------- 0 3.1 1.0 41 92
r 0.750572 3 2 ack 40 ------- 0 3.1 1.0 32 78
+ 0.750572 2 1 ack 40 ------- 0 3.1 1.0 32 78
- 0.750572 2 1 ack 40 ------- 0 3.1 1.0 32 78
r 0.751452 2 3 tcp 140 ------- 0 1.0 3.1 42 73
+ 0.751452 3 2 ack 40 ------- 0 3.1 1.0 42 93
- 0.751452 3 2 ack 40 ------- 0 3.1 1.0 42 93
r 0.751692 3 2 ack 40 ------- 0 3.1 1.0 33 79
+ 0.751692 2 1 ack 40 ------- 0 3.1 1.0 33 79
- 0.751692 2 1 ack 40 ------- 0 3.1 1.0 33 79
r 0.752572 2 3 tcp 140 ------- 0 1.0 3.1 43 74
+ 0.752572 3 2 ack 40 ------- 0 3.1 1.0 43 94
- 0.752572 3 2 ack 40 ------- 0 3.1 1.0 43 94
r 0.752812 3 2 ack 40 ------- 0 3.1 1.0 34 80
+ 0.752812 2 1 ack 40 ------- 0 3.1 1.0 34 80
- 0.752812 2 1 ack 40 ------- 0 3.1 1.0 34 80
r 0.753932 3 2 ack 40 ------- 0 3.1 1.0 35 81
+ 0.753932 2 1 ack 40 ------- 0 3.1 1.0 35 81
- 0.753932 2 1 ack 40 ------- 0 3.1 1.0 35 81
r 0.755052 3 2 ack 40 ------- 0 3.1 1.0 36 83
+ 0.755052 2 1 ack 40 ------- 0 3.1 1.0 36 83
- 0.755052 2 1 ack 40 ------- 0 3.1 1.0 36 83
r 0.755432 1 2 tcp 140 ------- 0 1.0 3.1 46 82
+ 0.755432 2 3 tcp 140 ------- 0 1.0 3.1 46 82
- 0.755432 2 3 tcp 140 ------- 0 1.0 3.1 46 82
r 0.756172 3 2 ack 40 ------- 0 3.1 1.0 37 84
+ 0.756172 2 1 ack 40 ------- 0 3.1 1.0 37 84
- 0.756172 2 1 ack 40 ------- 0 3.1 1.0 37 84
+ 0.7565 1 2 tcp 140 ------- 0 1.0 3.1 50 95
- 0.7565 1 2 tcp 140 ------- 0 1.0 3.1 50 95
r 0.757225 1 2 tcp 140 ------- 0 1.0 3.1 47 85
+ 0.757225 2 3 tcp 140 ------- 0 1.0 3.1 47 85
- 0.757225 2 3 tcp 140 ------- 0 1.0 3.1 47 85
r 0.757292 3 2 ack 40 ------- 0 3.1 1.0 38 86
+ 0.757292 2 1 ack 40 ------- 0 3.1 1.0 38 86
- 0.757292 2 1 ack 40 ------- 0 3.1 1.0 38 86
r 0.757746 2 3 tcp 140 ------- 0 1.0 3.1 44 75
+ 0.757746 3 2 ack 40 ------- 0 3.1 1.0 44 96
- 0.757746 3 2 ack 40 ------- 0 3.1 1.0 44 96
r 0.758412 3 2 ack 40 ------- 0 3.1 1.0 39 87
+ 0.758412 2 1 ack 40 ------- 0 3.1 1.0 39 87
- 0.758412 2 1 ack 40 ------- 0 3.1 1.0 39 87
r 0.759532 3 2 ack 40 ------- 0 3.1 1.0 40 89
+ 0.759532 2 1 ack 40 ------- 0 3.1 1.0 40 89
- 0.759532 2 1 ack 40 ------- 0 3.1 1.0 40 89
r 0.759759 2 3 tcp 140 ------- 0 1.0 3.1 45 76
+ 0.759759 3 2 ack 40 ------- 0 3.1 1.0 45 97
- 0.759759 3 2 ack 40 ------- 0 3.1 1.0 45 97
r 0.759772 2 1 ack 40 ------- 0 3.1 1.0 31 77
+ 0.759772 1 2 tcp 140 ------- 0 1.0 3.1 51 98
- 0.759772 1 2 tcp 140 ------- 0 1.0 3.1 51 98
r 0.760262 1 2 tcp 140 ------- 0 1.0 3.1 48 88
+ 0.760262 2 3 tcp 140 ------- 0 1.0 3.1 48 88
- 0.760262 2 3 tcp 140 ------- 0 1.0 3.1 48 88
r 0.76032 0 2 tcp 40 ------- 0 0.0 3.0 0 91
+ 0.76032 2 3 tcp 40 ------- 0 0.0 3.0 0 91
r 0.760652 3 2 ack 40 ------- 0 3.1 1.0 41 92
+ 0.760652 2 1 ack 40 ------- 0 3.1 1.0 41 92
- 0.760652 2 1 ack 40 ------- 0 3.1 1.0 41 92
r 0.760892 2 1 ack 40 ------- 0 3.1 1.0 32 78
r 0.761382 1 2 tcp 140 ------- 0 1.0 3.1 49 90
+ 0.761382 2 3 tcp 140 ------- 0 1.0 3.1 49 90
- 0.761382 2 3 tcp 40 ------- 0 0.0 3.0 0 91
- 0.761702 2 3 tcp 140 ------- 0 1.0 3.1 49 90
r 0.761772 3 2 ack 40 ------- 0 3.1 1.0 42 93
+ 0.761772 2 1 ack 40 ------- 0 3.1 1.0 42 93
- 0.761772 2 1 ack 40 ------- 0 3.1 1.0 42 93
r 0.762012 2 1 ack 40 ------- 0 3.1 1.0 33 79
r 0.762892 3 2 ack 40 ------- 0 3.1 1.0 43 94
+ 0.762892 2 1 ack 40 ------- 0 3.1 1.0 43 94
- 0.762892 2 1 ack 40 ------- 0 3.1 1.0 43 94
r 0.763132 2 1 ack 40 ------- 0 3.1 1.0 34 80
+ 0.763716 1 2 tcp 140 ------- 0 1.0 3.1 52 99
- 0.763716 1 2 tcp 140 ------- 0 1.0 3.1 52 99
r 0.764252 2 1 ack 40 ------- 0 3.1 1.0 35 81
r 0.765372 2 1 ack 40 ------- 0 3.1 1.0 36 83
r 0.766492 2 1 ack 40 ------- 0 3.1 1.0 37 84
r 0.766552 2 3 tcp 140 ------- 0 1.0 3.1 46 82
+ 0.766552 3 2 ack 40 ------- 0 3.1 1.0 46 100
- 0.766552 3 2 ack 40 ------- 0 3.1 1.0 46 100
r 0.767612 2 1 ack 40 ------- 0 3.1 1.0 38 86
r 0.76762 1 2 tcp 140 ------- 0 1.0 3.1 50 95
+ 0.76762 2 3 tcp 140 ------- 0 1.0 3.1 50 95
- 0.76762 2 3 tcp 140 ------- 0 1.0 3.1 50 95
r 0.768066 3 2 ack 40 ------- 0 3.1 1.0 44 96
+ 0.768066 2 1 ack 40 ------- 0 3.1 1.0 44 96
- 0.768066 2 1 ack 40 ------- 0 3.1 1.0 44 96
r 0.768345 2 3 tcp 140 ------- 0 1.0 3.1 47 85
+ 0.768345 3 2 ack 40 ------- 0 3.1 1.0 47 101
- 0.768345 3 2 ack 40 ------- 0 3.1 1.0 47 101
r 0.768732 2 1 ack 40 ------- 0 3.1 1.0 39 87
r 0.769852 2 1 ack 40 ------- 0 3.1 1.0 40 89
r 0.770079 3 2 ack 40 ------- 0 3.1 1.0 45 97
+ 0.770079 2 1 ack 40 ------- 0 3.1 1.0 45 97
- 0.770079 2 1 ack 40 ------- 0 3.1 1.0 45 97
r 0.770892 1 2 tcp 140 ------- 0 1.0 3.1 51 98
+ 0.770892 2 3 tcp 140 ------- 0 1.0 3.1 51 98
- 0.770892 2 3 tcp 140 ------- 0 1.0 3.1 51 98
r 0.770972 2 1 ack 40 ------- 0 3.1 1.0 41 92
r 0.771382 2 3 tcp 140 ------- 0 1.0 3.1 48 88
+ 0.771382 3 2 ack 40 ------- 0 3.1 1.0 48 102
- 0.771382 3 2 ack 40 ------- 0 3.1 1.0 48 102
r 0.771702 2 3 tcp 40 ------- 0 0.0 3.0 0 91
+ 0.771702 3 2 ack 40 ------- 0 3.0 0.0 0 103
- 0.771702 3 2 ack 40 ------- 0 3.0 0.0 0 103
r 0.772092 2 1 ack 40 ------- 0 3.1 1.0 42 93
r 0.772822 2 3 tcp 140 ------- 0 1.0 3.1 49 90
+ 0.772822 3 2 ack 40 ------- 0 3.1 1.0 49 104
- 0.772822 3 2 ack 40 ------- 0 3.1 1.0 49 104
r 0.773212 2 1 ack 40 ------- 0 3.1 1.0 43 94
r 0.774836 1 2 tcp 140 ------- 0 1.0 3.1 52 99
+ 0.774836 2 3 tcp 140 ------- 0 1.0 3.1 52 99
- 0.774836 2 3 tcp 140 ------- 0 1.0 3.1 52 99
r 0.776872 3 2 ack 40 ------- 0 3.1 1.0 46 100
+ 0.776872 2 1 ack 40 ------- 0 3.1 1.0 46 100
- 0.776872 2 1 ack 40 ------- 0 3.1 1.0 46 100
r 0.778386 2 1 ack 40 ------- 0 3.1 1.0 44 96
r 0.778665 3 2 ack 40 ------- 0 3.1 1.0 47 101
+ 0.778665 2 1 ack 40 ------- 0 3.1 1.0 47 101
- 0.778665 2 1 ack 40 ------- 0 3.1 1.0 47 101
r 0.77874 2 3 tcp 140 ------- 0 1.0 3.1 50 95
+ 0.77874 3 2 ack 40 ------- 0 3.1 1.0 50 105
- 0.77874 3 2 ack 40 ------- 0 3.1 1.0 50 105
r 0.780399 2 1 ack 40 ------- 0 3.1 1.0 45 97
+ 0.781673 1 2 tcp 140 ------- 0 1.0 3.1 53 106
- 0.781673 1 2 tcp 140 ------- 0 1.0 3.1 53 106
r 0.781702 3 2 ack 40 ------- 0 3.1 1.0 48 102
+ 0.781702 2 1 ack 40 ------- 0 3.1 1.0 48 102
- 0.781702 2 1 ack 40 ------- 0 3.1 1.0 48 102
r 0.782012 2 3 tcp 140 ------- 0 1.0 3.1 51 98
+ 0.782012 3 2 ack 40 ------- 0 3.1 1.0 51 107
- 0.782012 3 2 ack 40 ------- 0 3.1 1.0 51 107
r 0.782022 3 2 ack 40 ------- 0 3.0 0.0 0 103
+ 0.782022 2 0 ack 40 ------- 0 3.0 0.0 0 103
- 0.782022 2 0 ack 40 ------- 0 3.0 0.0 0 103
r 0.783142 3 2 ack 40 ------- 0 3.1 1.0 49 104
+ 0.783142 2 1 ack 40 ------- 0 3.1 1.0 49 104
- 0.783142 2 1 ack 40 ------- 0 3.1 1.0 49 104
r 0.785956 2 3 tcp 140 ------- 0 1.0 3.1 52 99
+ 0.785956 3 2 ack 40 ------- 0 3.1 1.0 52 108
- 0.785956 3 2 ack 40 ------- 0 3.1 1.0 52 108
r 0.787192 2 1 ack 40 ------- 0 3.1 1.0 46 100
+ 0.787258 1 2 tcp 140 ------- 0 1.0 3.1 54 109
- 0.787258 1 2 tcp 140 ------- 0 1.0 3.1 54 109
r 0.788985 2 1 ack 40 ------- 0 3.1 1.0 47 101
r 0.78906 3 2 ack 40 ------- 0 3.1 1.0 50 105
+ 0.78906 2 1 ack 40 ------- 0 3.1 1.0 50 105
- 0.78906 2 1 ack 40 ------- 0 3.1 1.0 50 105
r 0.792022 2 1 ack 40 ------- 0 3.1 1.0 48 102
r 0.792332 3 2 ack 40 ------- 0 3.1 1.0 51 107
+ 0.792332 2 1 ack 40 ------- 0 3.1 1.0 51 107
- 0.792332 2 1 ack 40 ------- 0 3.1 1.0 51 107
r 0.792342 2 0 ack 40 ------- 0 3.0 0.0 0 103
+ 0.792342 0 2 tcp 1040 ------- 0 0.0 3.0 1 110
- 0.792342 0 2 tcp 1040 ------- 0 0.0 3.0 1 110
+ 0.792342 0 2 tcp 1040 ------- 0 0.0 3.0 2 111